A_B_15                                                                  
SP        RB3LYP                                                      6-31+G(d)           
Number of atoms                            I               12
Info1-9                                    I   N=           9
          23          23           0           0           0         110
           1          18        -502
Charge                                     I                0
Multiplicity                               I                1
Number of electrons                        I               32
Number of alpha electrons                  I               16
Number of beta electrons                   I               16
Number of basis functions                  I               92
Number of independent functions            I               92
Number of point charges in /Mol/           I                0
Number of translation vectors              I                0
Atomic numbers                             I   N=          12
           6           6           1           1           1           1
           6           6           1           1           1           1
Nuclear charges                            R   N=          12
  6.00000000E+00  6.00000000E+00  1.00000000E+00  1.00000000E+00  1.00000000E+00
  1.00000000E+00  6.00000000E+00  6.00000000E+00  1.00000000E+00  1.00000000E+00
  1.00000000E+00  1.00000000E+00
Current cartesian coordinates              R   N=          36
  1.27131137E+00  0.00000000E+00  0.00000000E+00 -1.27131137E+00  0.00000000E+00
  0.00000000E+00  2.34821716E+00  1.76652733E+00  0.00000000E+00  2.34821716E+00
 -1.76652733E+00  0.00000000E+00 -2.34821716E+00  1.76652733E+00  0.00000000E+00
 -2.34821716E+00 -1.76652733E+00  0.00000000E+00  1.27131137E+00  0.00000000E+00
  9.44863066E+00 -1.27131137E+00  0.00000000E+00  9.44863066E+00  2.34821716E+00
  1.70633388E+00  8.99141899E+00  2.34821716E+00 -1.70633388E+00  9.90584234E+00
 -2.34821716E+00  1.70633388E+00  8.99141899E+00 -2.34821716E+00 -1.70633388E+00
  9.90584234E+00
Force Field                                I                0
Int Atom Types                             I   N=          12
           0           0           0           0           0           0
           0           0           0           0           0           0
MM charges                                 R   N=          12
  0.00000000E+00  0.00000000E+00  0.00000000E+00  0.00000000E+00  0.00000000E+00
  0.00000000E+00  0.00000000E+00  0.00000000E+00  0.00000000E+00  0.00000000E+00
  0.00000000E+00  0.00000000E+00
Integer atomic weights                     I   N=          12
          12          12           1           1           1           1
          12          12           1           1           1           1
Real atomic weights                        R   N=          12
  1.20000000E+01  1.20000000E+01  1.00782504E+00  1.00782504E+00  1.00782504E+00
  1.00782504E+00  1.20000000E+01  1.20000000E+01  1.00782504E+00  1.00782504E+00
  1.00782504E+00  1.00782504E+00
Atom fragment info                         I   N=          12
           0           0           0           0           0           0
           0           0           0           0           0           0
Atom residue num                           I   N=          12
           0           0           0           0           0           0
           0           0           0           0           0           0
Nuclear spins                              I   N=          12
           0           0           1           1           1           1
           0           0           1           1           1           1
Nuclear ZEff                               R   N=          12
 -3.60000000E+00 -3.60000000E+00 -1.00000000E+00 -1.00000000E+00 -1.00000000E+00
 -1.00000000E+00 -3.60000000E+00 -3.60000000E+00 -1.00000000E+00 -1.00000000E+00
 -1.00000000E+00 -1.00000000E+00
Nuclear ZNuc                               R   N=          12
  6.00000000E+00  6.00000000E+00  1.00000000E+00  1.00000000E+00  1.00000000E+00
  1.00000000E+00  6.00000000E+00  6.00000000E+00  1.00000000E+00  1.00000000E+00
  1.00000000E+00  1.00000000E+00
Nuclear QMom                               R   N=          12
  0.00000000E+00  0.00000000E+00  0.00000000E+00  0.00000000E+00  0.00000000E+00
  0.00000000E+00  0.00000000E+00  0.00000000E+00  0.00000000E+00  0.00000000E+00
  0.00000000E+00  0.00000000E+00
Nuclear GFac                               R   N=          12
  0.00000000E+00  0.00000000E+00  2.79284600E+00  2.79284600E+00  2.79284600E+00
  2.79284600E+00  0.00000000E+00  0.00000000E+00  2.79284600E+00  2.79284600E+00
  2.79284600E+00  2.79284600E+00
MicOpt                                     I   N=          12
          -1          -1          -1          -1          -1          -1
          -1          -1          -1          -1          -1          -1
Number of contracted shells                I               36
Number of primitive shells                 I               80
Pure/Cartesian d shells                    I                1
Pure/Cartesian f shells                    I                0
Highest angular momentum                   I                2
Largest degree of contraction              I                6
Shell types                                I   N=          36
           0          -1          -1          -1           2           0
          -1          -1          -1           2           0           0
           0           0           0           0           0           0
           0          -1          -1          -1           2           0
          -1          -1          -1           2           0           0
           0           0           0           0           0           0
Number of primitives per shell             I   N=          36
           6           3           1           1           1           6
           3           1           1           1           3           1
           3           1           3           1           3           1
           6           3           1           1           1           6
           3           1           1           1           3           1
           3           1           3           1           3           1
Shell to atom map                          I   N=          36
           1           1           1           1           1           2
           2           2           2           2           3           3
           4           4           5           5           6           6
           7           7           7           7           7           8
           8           8           8           8           9           9
          10          10          11          11          12          12
Primitive exponents                        R   N=          80
  3.04752488E+03  4.57369518E+02  1.03948685E+02  2.92101553E+01  9.28666296E+00
  3.16392696E+00  7.86827235E+00  1.88128854E+00  5.44249258E-01  1.68714478E-01
  4.38000000E-02  8.00000000E-01  3.04752488E+03  4.57369518E+02  1.03948685E+02
  2.92101553E+01  9.28666296E+00  3.16392696E+00  7.86827235E+00  1.88128854E+00
  5.44249258E-01  1.68714478E-01  4.38000000E-02  8.00000000E-01  1.87311370E+01
  2.82539436E+00  6.40121692E-01  1.61277759E-01  1.87311370E+01  2.82539436E+00
  6.40121692E-01  1.61277759E-01  1.87311370E+01  2.82539436E+00  6.40121692E-01
  1.61277759E-01  1.87311370E+01  2.82539436E+00  6.40121692E-01  1.61277759E-01
  3.04752488E+03  4.57369518E+02  1.03948685E+02  2.92101553E+01  9.28666296E+00
  3.16392696E+00  7.86827235E+00  1.88128854E+00  5.44249258E-01  1.68714478E-01
  4.38000000E-02  8.00000000E-01  3.04752488E+03  4.57369518E+02  1.03948685E+02
  2.92101553E+01  9.28666296E+00  3.16392696E+00  7.86827235E+00  1.88128854E+00
  5.44249258E-01  1.68714478E-01  4.38000000E-02  8.00000000E-01  1.87311370E+01
  2.82539436E+00  6.40121692E-01  1.61277759E-01  1.87311370E+01  2.82539436E+00
  6.40121692E-01  1.61277759E-01  1.87311370E+01  2.82539436E+00  6.40121692E-01
  1.61277759E-01  1.87311370E+01  2.82539436E+00  6.40121692E-01  1.61277759E-01
Contraction coefficients                   R   N=          80
  1.83473713E-03  1.40373228E-02  6.88426223E-02  2.32184443E-01  4.67941348E-01
  3.62311985E-01 -1.19332420E-01 -1.60854152E-01  1.14345644E+00  1.00000000E+00
  1.00000000E+00  1.00000000E+00  1.83473713E-03  1.40373228E-02  6.88426223E-02
  2.32184443E-01  4.67941348E-01  3.62311985E-01 -1.19332420E-01 -1.60854152E-01
  1.14345644E+00  1.00000000E+00  1.00000000E+00  1.00000000E+00  3.34946043E-02
  2.34726953E-01  8.13757326E-01  1.00000000E+00  3.34946043E-02  2.34726953E-01
  8.13757326E-01  1.00000000E+00  3.34946043E-02  2.34726953E-01  8.13757326E-01
  1.00000000E+00  3.34946043E-02  2.34726953E-01  8.13757326E-01  1.00000000E+00
  1.83473713E-03  1.40373228E-02  6.88426223E-02  2.32184443E-01  4.67941348E-01
  3.62311985E-01 -1.19332420E-01 -1.60854152E-01  1.14345644E+00  1.00000000E+00
  1.00000000E+00  1.00000000E+00  1.83473713E-03  1.40373228E-02  6.88426223E-02
  2.32184443E-01  4.67941348E-01  3.62311985E-01 -1.19332420E-01 -1.60854152E-01
  1.14345644E+00  1.00000000E+00  1.00000000E+00  1.00000000E+00  3.34946043E-02
  2.34726953E-01  8.13757326E-01  1.00000000E+00  3.34946043E-02  2.34726953E-01
  8.13757326E-01  1.00000000E+00  3.34946043E-02  2.34726953E-01  8.13757326E-01
  1.00000000E+00  3.34946043E-02  2.34726953E-01  8.13757326E-01  1.00000000E+00
P(S=P) Contraction coefficients            R   N=          80
  0.00000000E+00  0.00000000E+00  0.00000000E+00  0.00000000E+00  0.00000000E+00
  0.00000000E+00  6.89990666E-02  3.16423961E-01  7.44308291E-01  1.00000000E+00
  1.00000000E+00  0.00000000E+00  0.00000000E+00  0.00000000E+00  0.00000000E+00
  0.00000000E+00  0.00000000E+00  0.00000000E+00  6.89990666E-02  3.16423961E-01
  7.44308291E-01  1.00000000E+00  1.00000000E+00  0.00000000E+00  0.00000000E+00
  0.00000000E+00  0.00000000E+00  0.00000000E+00  0.00000000E+00  0.00000000E+00
  0.00000000E+00  0.00000000E+00  0.00000000E+00  0.00000000E+00  0.00000000E+00
  0.00000000E+00  0.00000000E+00  0.00000000E+00  0.00000000E+00  0.00000000E+00
  0.00000000E+00  0.00000000E+00  0.00000000E+00  0.00000000E+00  0.00000000E+00
  0.00000000E+00  6.89990666E-02  3.16423961E-01  7.44308291E-01  1.00000000E+00
  1.00000000E+00  0.00000000E+00  0.00000000E+00  0.00000000E+00  0.00000000E+00
  0.00000000E+00  0.00000000E+00  0.00000000E+00  6.89990666E-02  3.16423961E-01
  7.44308291E-01  1.00000000E+00  1.00000000E+00  0.00000000E+00  0.00000000E+00
  0.00000000E+00  0.00000000E+00  0.00000000E+00  0.00000000E+00  0.00000000E+00
  0.00000000E+00  0.00000000E+00  0.00000000E+00  0.00000000E+00  0.00000000E+00
  0.00000000E+00  0.00000000E+00  0.00000000E+00  0.00000000E+00  0.00000000E+00
Coordinates of each shell                  R   N=         108
  1.27131137E+00  0.00000000E+00  0.00000000E+00  1.27131137E+00  0.00000000E+00
  0.00000000E+00  1.27131137E+00  0.00000000E+00  0.00000000E+00  1.27131137E+00
  0.00000000E+00  0.00000000E+00  1.27131137E+00  0.00000000E+00  0.00000000E+00
 -1.27131137E+00  0.00000000E+00  0.00000000E+00 -1.27131137E+00  0.00000000E+00
  0.00000000E+00 -1.27131137E+00  0.00000000E+00  0.00000000E+00 -1.27131137E+00
  0.00000000E+00  0.00000000E+00 -1.27131137E+00  0.00000000E+00  0.00000000E+00
  2.34821716E+00  1.76652733E+00  0.00000000E+00  2.34821716E+00  1.76652733E+00
  0.00000000E+00  2.34821716E+00 -1.76652733E+00  0.00000000E+00  2.34821716E+00
 -1.76652733E+00  0.00000000E+00 -2.34821716E+00  1.76652733E+00  0.00000000E+00
 -2.34821716E+00  1.76652733E+00  0.00000000E+00 -2.34821716E+00 -1.76652733E+00
  0.00000000E+00 -2.34821716E+00 -1.76652733E+00  0.00000000E+00  1.27131137E+00
  0.00000000E+00  9.44863066E+00  1.27131137E+00  0.00000000E+00  9.44863066E+00
  1.27131137E+00  0.00000000E+00  9.44863066E+00  1.27131137E+00  0.00000000E+00
  9.44863066E+00  1.27131137E+00  0.00000000E+00  9.44863066E+00 -1.27131137E+00
  0.00000000E+00  9.44863066E+00 -1.27131137E+00  0.00000000E+00  9.44863066E+00
 -1.27131137E+00  0.00000000E+00  9.44863066E+00 -1.27131137E+00  0.00000000E+00
  9.44863066E+00 -1.27131137E+00  0.00000000E+00  9.44863066E+00  2.34821716E+00
  1.70633388E+00  8.99141899E+00  2.34821716E+00  1.70633388E+00  8.99141899E+00
  2.34821716E+00 -1.70633388E+00  9.90584234E+00  2.34821716E+00 -1.70633388E+00
  9.90584234E+00 -2.34821716E+00  1.70633388E+00  8.99141899E+00 -2.34821716E+00
  1.70633388E+00  8.99141899E+00 -2.34821716E+00 -1.70633388E+00  9.90584234E+00
 -2.34821716E+00 -1.70633388E+00  9.90584234E+00
Constraint Structure                       R   N=          36
  1.27131137E+00  0.00000000E+00  0.00000000E+00 -1.27131137E+00  0.00000000E+00
  0.00000000E+00  2.34821716E+00  1.76652733E+00  0.00000000E+00  2.34821716E+00
 -1.76652733E+00  0.00000000E+00 -2.34821716E+00  1.76652733E+00  0.00000000E+00
 -2.34821716E+00 -1.76652733E+00  0.00000000E+00  1.27131137E+00  0.00000000E+00
  9.44863066E+00 -1.27131137E+00  0.00000000E+00  9.44863066E+00  2.34821716E+00
  1.70633388E+00  8.99141899E+00  2.34821716E+00 -1.70633388E+00  9.90584234E+00
 -2.34821716E+00  1.70633388E+00  8.99141899E+00 -2.34821716E+00 -1.70633388E+00
  9.90584234E+00
Num ILSW                                   I              100
ILSW                                       I   N=         100
           0           1           0           0           2           0
           0           0           0           0         402          -1
           5           0           0           0           0           0
           0           0           1           0           0           0
           1           1           0           0           0           0
           0           0      100000           0          -1           0
           0           0           0           0           0           0
           0           0           0           1           0           0
           0           0           1           0           0           0
           0           0           4          41           0           0
           0           0           5           0           0           0
           0           0           0           0           0           0
           0           0           0           0           0           0
           0           0           0           0           0           0
           0           0           0           0           0           0
           0           0           0           0           0           0
           0           0           0           0
Num RLSW                                   I               41
RLSW                                       R   N=          41
  8.00000000E-01  7.20000000E-01  1.00000000E+00  8.10000000E-01  2.00000000E-01
  0.00000000E+00  0.00000000E+00  1.00000000E+00  0.00000000E+00  0.00000000E+00
  0.00000000E+00  0.00000000E+00  1.00000000E+00  0.00000000E+00  0.00000000E+00
  0.00000000E+00  0.00000000E+00  1.00000000E+00  0.00000000E+00  0.00000000E+00
  0.00000000E+00  0.00000000E+00  1.00000000E+00  0.00000000E+00  0.00000000E+00
  0.00000000E+00  0.00000000E+00  1.00000000E+00  0.00000000E+00  0.00000000E+00
  0.00000000E+00  0.00000000E+00  1.00000000E+00  0.00000000E+00  0.00000000E+00
  0.00000000E+00  0.00000000E+00  0.00000000E+00  1.00000000E+00  1.00000000E+00
  0.00000000E+00
MxBond                                     I                3
NBond                                      I   N=          12
           3           3           1           1           1           1
           3           3           1           1           1           1
IBond                                      I   N=          36
           2           3           4           1           5           6
           1           0           0           1           0           0
           2           0           0           2           0           0
           8           9          10           7          11          12
           7           0           0           7           0           0
           8           0           0           8           0           0
RBond                                      R   N=          36
  2.00000000E+00  1.00000000E+00  1.00000000E+00  2.00000000E+00  1.00000000E+00
  1.00000000E+00  1.00000000E+00  0.00000000E+00  0.00000000E+00  1.00000000E+00
  0.00000000E+00  0.00000000E+00  1.00000000E+00  0.00000000E+00  0.00000000E+00
  1.00000000E+00  0.00000000E+00  0.00000000E+00  2.00000000E+00  1.00000000E+00
  1.00000000E+00  2.00000000E+00  1.00000000E+00  1.00000000E+00  1.00000000E+00
  0.00000000E+00  0.00000000E+00  1.00000000E+00  0.00000000E+00  0.00000000E+00
  1.00000000E+00  0.00000000E+00  0.00000000E+00  1.00000000E+00  0.00000000E+00
  0.00000000E+00
Virial Ratio                               R      2.011867432656263E+00
SCF Energy                                 R     -1.571855984313705E+02
Total Energy                               R     -1.571855984313705E+02
RMS Density                                R      4.036266721203998E-09
External E-field                           R   N=          35
  0.00000000E+00  0.00000000E+00  0.00000000E+00  0.00000000E+00  0.00000000E+00
  0.00000000E+00  0.00000000E+00  0.00000000E+00  0.00000000E+00  0.00000000E+00
  0.00000000E+00  0.00000000E+00  0.00000000E+00  0.00000000E+00  0.00000000E+00
  0.00000000E+00  0.00000000E+00  0.00000000E+00  0.00000000E+00  0.00000000E+00
  0.00000000E+00  0.00000000E+00  0.00000000E+00  0.00000000E+00  0.00000000E+00
  0.00000000E+00  0.00000000E+00  0.00000000E+00  0.00000000E+00  0.00000000E+00
  0.00000000E+00  0.00000000E+00  0.00000000E+00  0.00000000E+00  0.00000000E+00
IOpCl                                      I                0
IROHF                                      I                0
Alpha Orbital Energies                     R   N=          92
 -1.01965431E+01 -1.01962884E+01 -1.01957363E+01 -1.01954814E+01 -7.59924925E-01
 -7.59624183E-01 -5.82499532E-01 -5.82198381E-01 -4.70693273E-01 -4.70374962E-01
 -4.20675188E-01 -4.20380830E-01 -3.61300333E-01 -3.60989379E-01 -2.75475612E-01
 -2.71447336E-01 -1.26271987E-02 -2.54643149E-03  1.70993584E-02  2.57994358E-02
  3.60914759E-02  4.06953487E-02  4.56746034E-02  5.93969188E-02  7.56883823E-02
  8.10577791E-02  8.18294572E-02  9.61024559E-02  9.99294939E-02  1.16472751E-01
  1.32132745E-01  1.52556504E-01  1.57772183E-01  1.69784044E-01  1.73825538E-01
  1.90125227E-01  1.98306078E-01  2.40216727E-01  2.63174489E-01  3.02036556E-01
  3.42111347E-01  3.47492195E-01  3.51462137E-01  3.66128517E-01  5.77947327E-01
  5.90218838E-01  6.58855756E-01  6.64206965E-01  6.82552847E-01  7.07877474E-01
  7.28076852E-01  7.32848156E-01  7.62256353E-01  7.78509080E-01  8.40751956E-01
  8.63873379E-01  8.99126473E-01  9.09616582E-01  9.34111381E-01  9.47905109E-01
  9.62421383E-01  1.00065194E+00  1.03734823E+00  1.07923390E+00  1.16712974E+00
  1.17190437E+00  1.22180541E+00  1.22288603E+00  1.45004515E+00  1.45143386E+00
  1.54127649E+00  1.54231385E+00  1.81872584E+00  1.81915204E+00  1.88768701E+00
  1.88808267E+00  2.00201073E+00  2.00289765E+00  2.11030114E+00  2.11130438E+00
  2.29662542E+00  2.29930284E+00  2.37252072E+00  2.37416778E+00  2.66708534E+00
  2.66752449E+00  2.70123525E+00  2.70986796E+00  4.11768764E+00  4.12349949E+00
  4.25284145E+00  4.25549115E+00
Alpha MO coefficients                      R   N=        8464
  7.01852239E-01  3.45317339E-02  1.67690920E-04  1.48032235E-06  1.82266624E-05
 -6.26440989E-03 -2.26947611E-04 -1.48349344E-06 -6.43143788E-05  8.05057800E-04
 -8.22050754E-04 -2.75380395E-06  1.36020218E-04 -6.65996274E-03 -6.67954636E-03
 -6.89202128E-03  1.54057966E-07 -3.14812803E-06  5.73684890E-08  7.01852237E-01
  3.45317338E-02 -1.67690921E-04  1.48032235E-06  1.82266624E-05 -6.26440984E-03
  2.26947620E-04 -1.48349343E-06 -6.43143788E-05  8.05057730E-04  8.22050735E-04
 -2.75380394E-06  1.36020218E-04 -6.65996272E-03 -6.67954634E-03 -6.89202126E-03
 -1.54057966E-07  3.14812803E-06  5.73684882E-08 -1.80783385E-04  8.72626034E-04
 -1.78726646E-04  8.64653178E-04 -1.80783384E-04  8.72626030E-04 -1.78726645E-04
  8.64653174E-04 -1.74885223E-04 -2.05237288E-05  7.06442086E-06  5.33982484E-07
 -6.59199788E-06 -7.81491675E-06 -5.68771488E-05 -8.79790458E-06 -7.10525934E-06
 -2.34434651E-04  1.00559009E-04 -1.32065753E-06  1.34128177E-04  1.59471768E-06
  5.47340083E-08  3.50135855E-06 -2.19908564E-06 -1.02962786E-06  4.42770411E-06
 -1.74885219E-04 -2.05237286E-05 -7.06442086E-06  5.33982503E-07 -6.59199784E-06
 -7.81491676E-06  5.68771488E-05 -8.79790474E-06 -7.10525948E-06 -2.34434647E-04
 -1.00559008E-04 -1.32065763E-06  1.34128177E-04  1.59471763E-06  5.47339632E-08
  3.50135851E-06  2.19908564E-06  1.02962784E-06  4.42770410E-06 -1.24617838E-05
  1.53658620E-04 -1.87223654E-05  1.36204614E-04 -1.24617839E-05  1.53658620E-04
 -1.87223654E-05  1.36204614E-04  1.71480208E-04 -4.21135583E-06  1.05830772E-05
 -7.42892404E-07  2.98934592E-06 -3.80506529E-05 -7.88647054E-05 -3.53185667E-06
  2.05306616E-05 -2.77059169E-04  1.10049975E-04 -2.01852549E-05 -1.56443713E-04
 -7.05604941E-07 -5.78685322E-06  3.30582315E-06  3.17323057E-07  2.13047368E-06
 -6.14556375E-08  1.71480196E-04 -4.21135643E-06 -1.05830772E-05 -7.42892409E-07
  2.98934591E-06 -3.80506526E-05  7.88647054E-05 -3.53185662E-06  2.05306617E-05
 -2.77059167E-04 -1.10049974E-04 -2.01852548E-05 -1.56443713E-04 -7.05604843E-07
 -5.78685312E-06  3.30582325E-06 -3.17323057E-07 -2.13047368E-06 -6.14556373E-08
 -2.67731085E-05  2.15017722E-04 -1.65754051E-05  1.68878938E-04 -2.67731085E-05
  2.15017722E-04 -1.65754051E-05  1.68878938E-04  7.01853466E-01  3.45357991E-02
  1.67551571E-04 -5.58700485E-06 -1.90460346E-05 -6.28251687E-03 -2.25941046E-04
  2.65232183E-05  6.58850443E-05  8.30821414E-04 -8.30951143E-04  1.49961017E-05
 -1.60080015E-04 -6.65789858E-03 -6.69188892E-03 -6.87489997E-03  9.97635666E-07
  3.30415213E-06 -6.26345033E-05  7.01853465E-01  3.45357990E-02 -1.67551571E-04
 -5.58700484E-06 -1.90460346E-05 -6.28251686E-03  2.25941049E-04  2.65232182E-05
  6.58850443E-05  8.30821385E-04  8.30951136E-04  1.49961016E-05 -1.60080015E-04
 -6.65789857E-03 -6.69188891E-03 -6.87489996E-03 -9.97635665E-07 -3.30415214E-06
 -6.26345032E-05 -1.69885696E-04  8.15131915E-04 -1.86044734E-04  9.06566778E-04
 -1.69885696E-04  8.15131914E-04 -1.86044734E-04  9.06566776E-04  7.02152669E-01
  3.51988157E-02 -3.24843155E-04  1.92453454E-06 -1.33763214E-06 -1.29525868E-02
  2.34879775E-03 -4.75938116E-06 -4.79925294E-06  1.98451855E-02 -5.34447662E-03
 -4.60529737E-06  2.09963086E-05 -6.23867158E-03 -6.50646684E-03 -6.75436217E-03
 -3.65624519E-08  5.03643427E-07  4.80748797E-08 -7.02152672E-01 -3.51988158E-02
 -3.24843154E-04 -1.92453454E-06  1.33763208E-06  1.29525868E-02  2.34879775E-03
  4.75938117E-06  4.79925316E-06 -1.98451855E-02 -5.34447663E-03  4.60529738E-06
 -2.09963091E-05  6.23867160E-03  6.50646687E-03  6.75436219E-03 -3.65624514E-08
  5.03643416E-07 -4.80748798E-08 -1.01084261E-04  1.15952631E-03 -1.00822896E-04
  1.15302844E-03  1.01084261E-04 -1.15952632E-03  1.00822897E-04 -1.15302844E-03
  4.18773420E-04  2.58598381E-05  4.08615445E-07 -5.39808655E-06 -1.07826318E-05
 -3.45543657E-05  1.45681535E-05  4.62402689E-05  3.99174999E-05 -9.32238546E-04
  2.52920487E-04  2.87128416E-05 -2.59911882E-05 -2.68471614E-07 -1.53416705E-06
 -7.45021182E-07 -1.73620164E-06 -3.80009270E-06  1.03240906E-06 -4.18773432E-04
 -2.58598386E-05  4.08615473E-07  5.39808655E-06  1.07826319E-05  3.45543658E-05
  1.45681533E-05 -4.62402689E-05 -3.99174999E-05  9.32238547E-04  2.52920487E-04
 -2.87128416E-05  2.59911877E-05  2.68471725E-07  1.53416717E-06  7.45021290E-07
 -1.73620165E-06 -3.80009270E-06 -1.03240907E-06  1.05032265E-05 -4.43909073E-05
  2.51831681E-06  3.37496164E-05 -1.05032264E-05  4.43909067E-05 -2.51831674E-06
 -3.37496169E-05 -4.15738016E-04 -1.57049167E-05  9.01217553E-07  3.14979972E-06
  1.02639472E-05 -4.08882898E-05  1.41045559E-05 -4.09856632E-05 -4.19023277E-05
 -1.59217075E-03  4.13364448E-04 -6.94008686E-05 -3.49459108E-05  6.47843667E-06
  6.18171450E-06  8.42052525E-06  4.27121921E-07  3.82093265E-06 -1.86092158E-08
  4.15738021E-04  1.57049170E-05  9.01217566E-07 -3.14979972E-06 -1.02639472E-05
  4.08882898E-05  1.41045558E-05  4.09856632E-05  4.19023277E-05  1.59217075E-03
  4.13364448E-04  6.94008687E-05  3.49459110E-05 -6.47843672E-06 -6.18171455E-06
 -8.42052531E-06  4.27121922E-07  3.82093265E-06  1.86092163E-08  1.34252162E-07
  6.34175043E-05  4.49939835E-06 -1.81394756E-05 -1.34252127E-07 -6.34175046E-05
 -4.49939833E-06  1.81394753E-05  7.02152718E-01  3.51986326E-02 -3.24561033E-04
 -2.49518740E-06  1.35073230E-06 -1.29396253E-02  2.34144869E-03  2.27564766E-05
  4.09936547E-06  2.02266451E-02 -5.43430762E-03  2.26269273E-05 -6.73428029E-05
 -6.23754788E-03 -6.52321129E-03 -6.73793593E-03 -2.65901576E-07 -6.29786360E-07
 -7.16375210E-05 -7.02152719E-01 -3.51986326E-02 -3.24561033E-04  2.49518741E-06
 -1.35073228E-06  1.29396253E-02  2.34144869E-03 -2.27564766E-05 -4.09936557E-06
 -2.02266451E-02 -5.43430762E-03 -2.26269273E-05  6.73428031E-05  6.23754789E-03
  6.52321130E-03  6.73793594E-03 -2.65901574E-07 -6.29786356E-07  7.16375211E-05
 -9.81287475E-05  1.12327831E-03 -9.93627798E-05  1.16143297E-03  9.81287478E-05
 -1.12327831E-03  9.93627800E-05 -1.16143297E-03 -1.54554459E-01  3.01624187E-01
 -9.75739881E-02  1.11576068E-04 -1.72201406E-04  2.26386059E-01 -4.16653454E-03
  9.99239041E-05 -2.15701088E-04  3.39687282E-03 -8.11443914E-04  6.40117685E-05
  3.26420437E-05  7.87634173E-03  2.60397284E-04 -1.60655085E-02 -1.02150372E-06
  1.66981286E-05  1.10286946E-05 -1.54554459E-01  3.01624187E-01  9.75739881E-02
  1.11576068E-04 -1.72201406E-04  2.26386059E-01  4.16653454E-03  9.99239042E-05
 -2.15701088E-04  3.39687278E-03  8.11443904E-04  6.40117685E-05  3.26420433E-05
  7.87634173E-03  2.60397283E-04 -1.60655085E-02  1.02150372E-06 -1.66981286E-05
  1.10286946E-05  8.14652332E-02  1.46504714E-02  8.13431078E-02  1.46982745E-02
  8.14652332E-02  1.46504714E-02  8.13431078E-02  1.46982745E-02 -3.94582946E-02
  7.68915446E-02 -2.48565712E-02  1.14304928E-05  8.79098246E-05  5.79176477E-02
 -1.15259766E-03 -6.68257256E-05 -2.07736020E-04  7.10485858E-04  5.31073488E-05
 -4.05100189E-05  2.76243570E-04  1.99175514E-03 -2.40694231E-04 -3.84682515E-03
  5.57027710E-07 -9.62545170E-06 -1.19941286E-03 -3.94582946E-02  7.68915446E-02
  2.48565712E-02  1.14304928E-05  8.79098246E-05  5.79176477E-02  1.15259766E-03
 -6.68257255E-05 -2.07736020E-04  7.10485866E-04 -5.31073469E-05 -4.05100188E-05
  2.76243569E-04  1.99175514E-03 -2.40694231E-04 -3.84682515E-03 -5.57027710E-07
  9.62545170E-06 -1.19941286E-03  2.07341187E-02  3.97625720E-03  2.07819631E-02
  3.71551176E-03  2.07341187E-02  3.97625720E-03  2.07819631E-02  3.71551176E-03
  3.94887847E-02 -7.71634810E-02  2.49736217E-02 -1.89467815E-05  2.62100984E-05
 -5.76503718E-02  1.07358320E-03  1.03350394E-06  2.73291328E-04 -6.97869451E-04
  3.93746049E-04  1.66245817E-04 -7.41949907E-05 -2.03065549E-03 -8.97934589E-05
  4.08074120E-03  5.05489018E-07 -1.51541029E-06 -2.65721051E-06  3.94887847E-02
 -7.71634810E-02 -2.49736217E-02 -1.89467815E-05  2.62100984E-05 -5.76503718E-02
 -1.07358320E-03  1.03350390E-06  2.73291328E-04 -6.97869441E-04 -3.93746046E-04
  1.66245817E-04 -7.41949904E-05 -2.03065549E-03 -8.97934589E-05  4.08074120E-03
 -5.05489019E-07  1.51541029E-06 -2.65721051E-06 -2.07901944E-02 -4.07558705E-03
 -2.08117067E-02 -3.73299117E-03 -2.07901944E-02 -4.07558706E-03 -2.08117067E-02
 -3.73299117E-03 -1.54565650E-01  3.01680229E-01 -9.75945301E-02 -3.74537933E-05
  1.97859221E-04  2.26340681E-01 -4.17833306E-03 -2.28767038E-05  3.30625305E-04
  3.19171726E-03 -8.60400450E-04 -3.85178136E-05  3.52372129E-05  7.88362592E-03
 -8.19364683E-04 -1.49699164E-02 -5.99552557E-06 -1.56624356E-05 -4.69768399E-03
 -1.54565650E-01  3.01680229E-01  9.75945301E-02 -3.74537933E-05  1.97859221E-04
  2.26340681E-01  4.17833306E-03 -2.28767038E-05  3.30625305E-04  3.19171724E-03
  8.60400447E-04 -3.85178136E-05  3.52372132E-05  7.88362592E-03 -8.19364683E-04
 -1.49699164E-02  5.99552557E-06  1.56624356E-05 -4.69768399E-03  8.13644714E-02
  1.48236135E-02  8.14468355E-02  1.47854055E-02  8.13644714E-02  1.48236135E-02
  8.14468355E-02  1.47854055E-02 -1.18814304E-01  2.39491753E-01  1.63611770E-01
  1.42503813E-04 -1.18280004E-04  2.39437134E-01  6.01913068E-02  1.91599887E-04
 -3.76987736E-04 -3.16183727E-02  1.66569254E-02  2.18187171E-04  2.96875224E-04
 -8.07012009E-03  1.30926993E-02 -1.10764660E-02  1.64865342E-05 -1.38446261E-05
  9.66456469E-06  1.18814304E-01 -2.39491753E-01  1.63611770E-01 -1.42503813E-04
  1.18280004E-04 -2.39437134E-01  6.01913068E-02 -1.91599887E-04  3.76987736E-04
  3.16183727E-02  1.66569254E-02 -2.18187171E-04 -2.96875224E-04  8.07012009E-03
 -1.30926993E-02  1.10764660E-02  1.64865342E-05 -1.38446261E-05 -9.66456469E-06
  1.39966559E-01  5.64429259E-02  1.39739441E-01  5.63488015E-02 -1.39966559E-01
 -5.64429259E-02 -1.39739441E-01 -5.63488015E-02 -3.46862857E-02  6.98663906E-02
  4.77388774E-02  2.23862444E-05  6.29210755E-05  6.98638181E-02  1.75928111E-02
 -1.70704935E-04 -2.22348460E-04 -9.23879542E-03  4.51098666E-03 -1.43865438E-04
  1.15641558E-03 -2.37186447E-03  3.33851004E-03 -2.77045028E-03  4.92267154E-06
  1.42459054E-05 -2.03384839E-03  3.46862857E-02 -6.98663906E-02  4.77388774E-02
 -2.23862443E-05 -6.29210755E-05 -6.98638181E-02  1.75928111E-02  1.70704935E-04
  2.22348460E-04  9.23879542E-03  4.51098666E-03  1.43865438E-04 -1.15641558E-03
  2.37186447E-03 -3.33851004E-03  2.77045028E-03  4.92267154E-06  1.42459054E-05
  2.03384839E-03  4.07719531E-02  1.68272693E-02  4.07976221E-02  1.64798862E-02
 -4.07719531E-02 -1.68272693E-02 -4.07976221E-02 -1.64798862E-02  3.47274461E-02