 Entering Gaussian System, Link 0=g09
 Input=A_B_90.gjf
 Output=A_B_90.log
 Initial command:
 /opt/share/GAUSSIAN/v09-D.01.app/g09/l1.exe "/tmp/Gau-15887.inp" -scrdir="/tmp/"
 Entering Link 1 = /opt/share/GAUSSIAN/v09-D.01.app/g09/l1.exe PID=     15888.
  
 Copyright (c) 1988,1990,1992,1993,1995,1998,2003,2009,2013,
            Gaussian, Inc.  All Rights Reserved.
  
 This is part of the Gaussian(R) 09 program.  It is based on
 the Gaussian(R) 03 system (copyright 2003, Gaussian, Inc.),
 the Gaussian(R) 98 system (copyright 1998, Gaussian, Inc.),
 the Gaussian(R) 94 system (copyright 1995, Gaussian, Inc.),
 the Gaussian 92(TM) system (copyright 1992, Gaussian, Inc.),
 the Gaussian 90(TM) system (copyright 1990, Gaussian, Inc.),
 the Gaussian 88(TM) system (copyright 1988, Gaussian, Inc.),
 the Gaussian 86(TM) system (copyright 1986, Carnegie Mellon
 University), and the Gaussian 82(TM) system (copyright 1983,
 Carnegie Mellon University). Gaussian is a federally registered
 trademark of Gaussian, Inc.
  
 This software contains proprietary and confidential information,
 including trade secrets, belonging to Gaussian, Inc.
  
 This software is provided under written license and may be
 used, copied, transmitted, or stored only in accord with that
 written license.
  
 The following legend is applicable only to US Government
 contracts under FAR:
  
                    RESTRICTED RIGHTS LEGEND
  
 Use, reproduction and disclosure by the US Government is
 subject to restrictions as set forth in subparagraphs (a)
 and (c) of the Commercial Computer Software - Restricted
 Rights clause in FAR 52.227-19.
  
 Gaussian, Inc.
 340 Quinnipiac St., Bldg. 40, Wallingford CT 06492
  
  
 ---------------------------------------------------------------
 Warning -- This program may not be used in any manner that
 competes with the business of Gaussian, Inc. or will provide
 assistance to any competitor of Gaussian, Inc.  The licensee
 of this program is prohibited from giving any competitor of
 Gaussian, Inc. access to this program.  By using this program,
 the user acknowledges that Gaussian, Inc. is engaged in the
 business of creating and licensing software in the field of
 computational chemistry and represents and warrants to the
 licensee that it is not a competitor of Gaussian, Inc. and that
 it will not use this program in any manner prohibited above.
 ---------------------------------------------------------------
  

 Cite this work as:
 Gaussian 09, Revision D.01,
 M. J. Frisch, G. W. Trucks, H. B. Schlegel, G. E. Scuseria, 
 M. A. Robb, J. R. Cheeseman, G. Scalmani, V. Barone, B. Mennucci, 
 G. A. Petersson, H. Nakatsuji, M. Caricato, X. Li, H. P. Hratchian, 
 A. F. Izmaylov, J. Bloino, G. Zheng, J. L. Sonnenberg, M. Hada, 
 M. Ehara, K. Toyota, R. Fukuda, J. Hasegawa, M. Ishida, T. Nakajima, 
 Y. Honda, O. Kitao, H. Nakai, T. Vreven, J. A. Montgomery, Jr., 
 J. E. Peralta, F. Ogliaro, M. Bearpark, J. J. Heyd, E. Brothers, 
 K. N. Kudin, V. N. Staroverov, T. Keith, R. Kobayashi, J. Normand, 
 K. Raghavachari, A. Rendell, J. C. Burant, S. S. Iyengar, J. Tomasi, 
 M. Cossi, N. Rega, J. M. Millam, M. Klene, J. E. Knox, J. B. Cross, 
 V. Bakken, C. Adamo, J. Jaramillo, R. Gomperts, R. E. Stratmann, 
 O. Yazyev, A. J. Austin, R. Cammi, C. Pomelli, J. W. Ochterski, 
 R. L. Martin, K. Morokuma, V. G. Zakrzewski, G. A. Voth, 
 P. Salvador, J. J. Dannenberg, S. Dapprich, A. D. Daniels, 
 O. Farkas, J. B. Foresman, J. V. Ortiz, J. Cioslowski, 
 and D. J. Fox, Gaussian, Inc., Wallingford CT, 2013.
 
 ******************************************
 Gaussian 09:  ES64L-G09RevD.01 24-Apr-2013
                18-Sep-2016 
 ******************************************
 % mem=4GB
 % nprocshared=4
 Will use up to    4 processors via shared memory.
 % chk=A_B_90.chk
 ------------------------------------------------
 # B3LYP/6-31+G* int=ultrafine nosymm pop=nboread
 ------------------------------------------------
 1/38=1/1;
 2/12=2,15=1,17=6,18=5,40=1/2;
 3/5=1,6=6,7=11,11=2,16=1,25=1,30=1,74=-5,75=-5/1,2,3;
 4//1;
 5/5=2,38=5/2;
 6/7=2,8=2,9=2,10=2,28=1,40=2/1,7;
 99/5=1,9=1/99;
 ------
 A_B_90
 ------
 Symbolic Z-matrix:
 Charge =  0 Multiplicity = 1
 C                     0.67275   0.        0. 
 C                    -0.67275   0.        0. 
 H                     1.24262   0.93481   0. 
 H                     1.24262  -0.93481   0. 
 H                    -1.24262   0.93481   0. 
 H                    -1.24262  -0.93481   0. 
 C                     0.67275   0.        5. 
 C                    -0.67275   0.        5. 
 H                     1.24262   0.        4.06519 
 H                     1.24262   0.        5.93481 
 H                    -1.24262   0.        4.06519 
 H                    -1.24262   0.        5.93481 
 
                          Input orientation:                          
 ---------------------------------------------------------------------
 Center     Atomic      Atomic             Coordinates (Angstroms)
 Number     Number       Type             X           Y           Z
 ---------------------------------------------------------------------
      1          6           0        0.672749    0.000000    0.000000
      2          6           0       -0.672749    0.000000    0.000000
      3          1           0        1.242623    0.934806    0.000000
      4          1           0        1.242623   -0.934806    0.000000
      5          1           0       -1.242623    0.934806    0.000000
      6          1           0       -1.242623   -0.934806    0.000000
      7          6           0        0.672749    0.000000    5.000000
      8          6           0       -0.672749    0.000000    5.000000
      9          1           0        1.242623    0.000000    4.065194
     10          1           0        1.242623    0.000000    5.934806
     11          1           0       -1.242623    0.000000    4.065194
     12          1           0       -1.242623    0.000000    5.934806
 ---------------------------------------------------------------------
                    Distance matrix (angstroms):
                    1          2          3          4          5
     1  C    0.000000
     2  C    1.345498   0.000000
     3  H    1.094814   2.131317   0.000000
     4  H    1.094814   2.131317   1.869612   0.000000
     5  H    2.131317   1.094814   2.485246   3.109967   0.000000
     6  H    2.131317   1.094814   3.109967   2.485246   1.869612
     7  C    5.000000   5.177873   5.118459   5.118459   5.435302
     8  C    5.177873   5.000000   5.435302   5.435302   5.118459
     9  H    4.104943   4.493824   4.171291   4.171291   4.855524
    10  H    5.962104   6.236231   6.007977   6.007977   6.501710
    11  H    4.493824   4.104943   4.855524   4.855524   4.171291
    12  H    6.236231   5.962104   6.501710   6.501710   6.007977
                    6          7          8          9         10
     6  H    0.000000
     7  C    5.435302   0.000000
     8  C    5.118459   1.345498   0.000000
     9  H    4.855524   1.094814   2.131317   0.000000
    10  H    6.501710   1.094814   2.131317   1.869612   0.000000
    11  H    4.171291   2.131317   1.094814   2.485246   3.109967
    12  H    6.007977   2.131317   1.094814   3.109967   2.485246
                   11         12
    11  H    0.000000
    12  H    1.869612   0.000000
 Symmetry turned off by external request.
 Stoichiometry    C4H8
 Framework group  C2V[SGV(C4H4),X(H4)]
 Deg. of freedom    10
 Full point group                 C2V     NOp   4
 Rotational constants (GHZ):     13.4064391      1.4138973      1.3022279
 Standard basis: 6-31+G(d) (6D, 7F)
    92 basis functions,   160 primitive gaussians,    92 cartesian basis functions
    16 alpha electrons       16 beta electrons
       nuclear repulsion energy        92.5612597178 Hartrees.
 NAtoms=   12 NActive=   12 NUniq=   12 SFac= 1.00D+00 NAtFMM=   60 NAOKFM=F Big=F
 Integral buffers will be    131072 words long.
 Raffenetti 2 integral format.
 Two-electron integral symmetry is turned off.
 One-electron integrals computed using PRISM.
 NBasis=    92 RedAO= T EigKep=  1.69D-04  NBF=    92
 NBsUse=    92 1.00D-06 EigRej= -1.00D+00 NBFU=    92
 ExpMin= 4.38D-02 ExpMax= 3.05D+03 ExpMxC= 4.57D+02 IAcc=3 IRadAn=         5 AccDes= 0.00D+00
 Harris functional with IExCor=  402 and IRadAn=       5 diagonalized for initial guess.
 HarFok:  IExCor=  402 AccDes= 0.00D+00 IRadAn=         5 IDoV= 1 UseB2=F ITyADJ=14
 ICtDFT=  3500011 ScaDFX=  1.000000  1.000000  1.000000  1.000000
 FoFCou: FMM=F IPFlag=           0 FMFlag=      100000 FMFlg1=           0
         NFxFlg=           0 DoJE=T BraDBF=F KetDBF=T FulRan=T
         wScrn=  0.000000 ICntrl=     500 IOpCl=  0 I1Cent=   200000004 NGrid=           0
         NMat0=    1 NMatS0=      1 NMatT0=    0 NMatD0=    1 NMtDS0=    0 NMtDT0=    0
 Symmetry not used in FoFCou.
 Keep R1 ints in memory in canonical form, NReq=10115209.
 Requested convergence on RMS density matrix=1.00D-08 within 128 cycles.
 Requested convergence on MAX density matrix=1.00D-06.
 Requested convergence on             energy=1.00D-06.
 No special actions if energy rises.
 SCF Done:  E(RB3LYP) =  -157.186113505     A.U. after    9 cycles
            NFock=  9  Conv=0.40D-08     -V/T= 2.0119

 **********************************************************************

            Population analysis using the SCF density.

 **********************************************************************

 Alpha  occ. eigenvalues --  -10.20023 -10.19942 -10.19578 -10.19497  -0.76368
 Alpha  occ. eigenvalues --   -0.75916  -0.58603  -0.58167  -0.47416  -0.46964
 Alpha  occ. eigenvalues --   -0.42425  -0.41989  -0.36467  -0.36025  -0.27773
 Alpha  occ. eigenvalues --   -0.27322
 Alpha virt. eigenvalues --   -0.01248  -0.00748   0.01273   0.02311   0.03251
 Alpha virt. eigenvalues --    0.04337   0.04372   0.06004   0.07706   0.07731
 Alpha virt. eigenvalues --    0.08638   0.09234   0.10306   0.11837   0.13316
 Alpha virt. eigenvalues --    0.14370   0.15066   0.16767   0.17704   0.19111
 Alpha virt. eigenvalues --    0.19704   0.23825   0.23882   0.27480   0.34360
 Alpha virt. eigenvalues --    0.34499   0.35109   0.37077   0.57861   0.58436
 Alpha virt. eigenvalues --    0.65728   0.66527   0.68006   0.70161   0.72293
 Alpha virt. eigenvalues --    0.72666   0.75552   0.78767   0.82921   0.86680
 Alpha virt. eigenvalues --    0.90025   0.90949   0.93728   0.94187   0.95389
 Alpha virt. eigenvalues --    0.99013   1.05357   1.05893   1.16292   1.17696
 Alpha virt. eigenvalues --    1.21825   1.22775   1.44671   1.45058   1.53742
 Alpha virt. eigenvalues --    1.54199   1.81490   1.81943   1.88386   1.89126
 Alpha virt. eigenvalues --    1.99850   2.00885   2.10701   2.11168   2.29273
 Alpha virt. eigenvalues --    2.29886   2.36936   2.37296   2.66355   2.66913
 Alpha virt. eigenvalues --    2.69878   2.70921   4.11610   4.15483   4.24948
 Alpha virt. eigenvalues --    4.27148
          Condensed to atoms (all electrons):
               1          2          3          4          5          6
     1  C    5.020514   0.660029   0.382833   0.382833  -0.037006  -0.037006
     2  C    0.660029   5.020514  -0.037006  -0.037006   0.382833   0.382833
     3  H    0.382833  -0.037006   0.505872  -0.033127  -0.006621   0.003935
     4  H    0.382833  -0.037006  -0.033127   0.505872   0.003935  -0.006621
     5  H   -0.037006   0.382833  -0.006621   0.003935   0.505872  -0.033127
     6  H   -0.037006   0.382833   0.003935  -0.006621  -0.033127   0.505872
     7  C   -0.000721  -0.001442  -0.000050  -0.000050   0.000066   0.000066
     8  C   -0.001442  -0.000721   0.000066   0.000066  -0.000050  -0.000050
     9  H    0.001664  -0.001016  -0.000004  -0.000004   0.000000   0.000000
    10  H    0.000049   0.000000   0.000000   0.000000   0.000000   0.000000
    11  H   -0.001016   0.001664   0.000000   0.000000  -0.000004  -0.000004
    12  H    0.000000   0.000049   0.000000   0.000000   0.000000   0.000000
               7          8          9         10         11         12
     1  C   -0.000721  -0.001442   0.001664   0.000049  -0.001016   0.000000
     2  C   -0.001442  -0.000721  -0.001016   0.000000   0.001664   0.000049
     3  H   -0.000050   0.000066  -0.000004   0.000000   0.000000   0.000000
     4  H   -0.000050   0.000066  -0.000004   0.000000   0.000000   0.000000
     5  H    0.000066  -0.000050   0.000000   0.000000  -0.000004   0.000000
     6  H    0.000066  -0.000050   0.000000   0.000000  -0.000004   0.000000
     7  C    4.999885   0.676458   0.378790   0.382032  -0.031949  -0.037326
     8  C    0.676458   4.999885  -0.031949  -0.037326   0.378790   0.382032
     9  H    0.378790  -0.031949   0.503112  -0.033423  -0.006624   0.003927
    10  H    0.382032  -0.037326  -0.033423   0.508787   0.003927  -0.006806
    11  H   -0.031949   0.378790  -0.006624   0.003927   0.503112  -0.033423
    12  H   -0.037326   0.382032   0.003927  -0.006806  -0.033423   0.508787
 Mulliken charges:
               1
     1  C   -0.370731
     2  C   -0.370731
     3  H    0.184102
     4  H    0.184102
     5  H    0.184102
     6  H    0.184102
     7  C   -0.365760
     8  C   -0.365760
     9  H    0.185528
    10  H    0.182759
    11  H    0.185528
    12  H    0.182759
 Sum of Mulliken charges =   0.00000
 Mulliken charges with hydrogens summed into heavy atoms:
               1
     1  C   -0.002527
     2  C   -0.002527
     7  C    0.002527
     8  C    0.002527
 Electronic spatial extent (au):  <R**2>=           1597.5636
 Charge=              0.0000 electrons
 Dipole moment (field-independent basis, Debye):
    X=              0.0000    Y=              0.0000    Z=             -0.0529  Tot=              0.0529
 Quadrupole moment (field-independent basis, Debye-Ang):
   XX=            -24.8773   YY=            -28.5442   ZZ=            -28.9890
   XY=              0.0000   XZ=              0.0000   YZ=              0.0000
 Traceless Quadrupole moment (field-independent basis, Debye-Ang):
   XX=              2.5929   YY=             -1.0740   ZZ=             -1.5188
   XY=              0.0000   XZ=              0.0000   YZ=              0.0000
 Octapole moment (field-independent basis, Debye-Ang**2):
  XXX=              0.0000  YYY=              0.0000  ZZZ=           -189.4722  XYY=              0.0000
  XXY=              0.0000  XXZ=            -62.2990  XZZ=              0.0000  YZZ=              0.0000
  YYZ=            -80.7284  XYZ=              0.0000
 Hexadecapole moment (field-independent basis, Debye-Ang**3):
 XXXX=           -143.8687 YYYY=            -51.3455 ZZZZ=          -1936.7135 XXXY=              0.0000
 XXXZ=              0.0000 YYYX=              0.0000 YYYZ=              0.0000 ZZZX=              0.0000
 ZZZY=              0.0000 XXYY=            -31.0690 XXZZ=           -343.0174 YYZZ=           -422.1941
 XXYZ=              0.0000 YYXZ=              0.0000 ZZXY=              0.0000
 N-N= 9.256125971780D+01 E-N=-5.474752834941D+02  KE= 1.553443656233D+02
 ******************************Gaussian NBO Version 3.1******************************
             N A T U R A L   A T O M I C   O R B I T A L   A N D
          N A T U R A L   B O N D   O R B I T A L   A N A L Y S I S
 ******************************Gaussian NBO Version 3.1******************************

       /RESON  / : Allow strongly delocalized NBO set
       /FAO    / : Write the AO Fock matrix to LFN 44
       /SAO    / : Write the AO overlap matrix to LFN 43

 Analyzing the SCF density

 Job title: A_B_90                                                          

 Storage needed:     25928 in NPA,     34295 in NBO ( 536870096 available)


 NATURAL POPULATIONS:  Natural atomic orbital occupancies 
                                                          
   NAO  Atom  No  lang   Type(AO)    Occupancy      Energy
 ----------------------------------------------------------
     1    C    1  S      Cor( 1S)     1.99926     -10.06705
     2    C    1  S      Val( 2S)     1.08341      -0.25392
     3    C    1  S      Ryd( 4S)     0.00144       0.87239
     4    C    1  S      Ryd( 3S)     0.00021       0.64912
     5    C    1  S      Ryd( 5S)     0.00000       3.90604
     6    C    1  px     Val( 2p)     1.13225      -0.05779
     7    C    1  px     Ryd( 4p)     0.00377       0.41911
     8    C    1  px     Ryd( 3p)     0.00009       0.34362
     9    C    1  py     Val( 2p)     1.21823      -0.05540
    10    C    1  py     Ryd( 4p)     0.00336       0.82792
    11    C    1  py     Ryd( 3p)     0.00029       0.35328
    12    C    1  pz     Val( 2p)     0.99607      -0.12041
    13    C    1  pz     Ryd( 4p)     0.00269       0.44464
    14    C    1  pz     Ryd( 3p)     0.00025       0.40193
    15    C    1  dxy    Ryd( 3d)     0.00104       2.24400
    16    C    1  dxz    Ryd( 3d)     0.00063       1.90060
    17    C    1  dyz    Ryd( 3d)     0.00000       1.67613
    18    C    1  dx2y2  Ryd( 3d)     0.00059       2.29380
    19    C    1  dz2    Ryd( 3d)     0.00057       2.10333

    20    C    2  S      Cor( 1S)     1.99926     -10.06705
    21    C    2  S      Val( 2S)     1.08341      -0.25392
    22    C    2  S      Ryd( 4S)     0.00144       0.87239
    23    C    2  S      Ryd( 3S)     0.00021       0.64912
    24    C    2  S      Ryd( 5S)     0.00000       3.90604
    25    C    2  px     Val( 2p)     1.13225      -0.05779
    26    C    2  px     Ryd( 4p)     0.00377       0.41911
    27    C    2  px     Ryd( 3p)     0.00009       0.34362
    28    C    2  py     Val( 2p)     1.21823      -0.05540
    29    C    2  py     Ryd( 4p)     0.00336       0.82792
    30    C    2  py     Ryd( 3p)     0.00029       0.35328
    31    C    2  pz     Val( 2p)     0.99607      -0.12041
    32    C    2  pz     Ryd( 4p)     0.00269       0.44464
    33    C    2  pz     Ryd( 3p)     0.00025       0.40193
    34    C    2  dxy    Ryd( 3d)     0.00104       2.24400
    35    C    2  dxz    Ryd( 3d)     0.00063       1.90060
    36    C    2  dyz    Ryd( 3d)     0.00000       1.67613
    37    C    2  dx2y2  Ryd( 3d)     0.00059       2.29380
    38    C    2  dz2    Ryd( 3d)     0.00057       2.10333

    39    H    3  S      Val( 1S)     0.77687       0.07835
    40    H    3  S      Ryd( 2S)     0.00087       0.61478

    41    H    4  S      Val( 1S)     0.77687       0.07835
    42    H    4  S      Ryd( 2S)     0.00087       0.61478

    43    H    5  S      Val( 1S)     0.77687       0.07835
    44    H    5  S      Ryd( 2S)     0.00087       0.61478

    45    H    6  S      Val( 1S)     0.77687       0.07835
    46    H    6  S      Ryd( 2S)     0.00087       0.61478

    47    C    7  S      Cor( 1S)     1.99926     -10.06267
    48    C    7  S      Val( 2S)     1.08319      -0.24895
    49    C    7  S      Ryd( 4S)     0.00146       0.85606
    50    C    7  S      Ryd( 3S)     0.00022       0.66012
    51    C    7  S      Ryd( 5S)     0.00000       3.86262
    52    C    7  px     Val( 2p)     1.13220      -0.05343
    53    C    7  px     Ryd( 4p)     0.00375       0.41877
    54    C    7  px     Ryd( 3p)     0.00010       0.34934
    55    C    7  py     Val( 2p)     0.99639      -0.11598
    56    C    7  py     Ryd( 4p)     0.00270       0.43680
    57    C    7  py     Ryd( 3p)     0.00026       0.34991
    58    C    7  pz     Val( 2p)     1.21758      -0.05068
    59    C    7  pz     Ryd( 4p)     0.00335       0.82377
    60    C    7  pz     Ryd( 3p)     0.00039       0.40650
    61    C    7  dxy    Ryd( 3d)     0.00064       1.90462
    62    C    7  dxz    Ryd( 3d)     0.00104       2.24905
    63    C    7  dyz    Ryd( 3d)     0.00000       1.68067
    64    C    7  dx2y2  Ryd( 3d)     0.00043       2.28013
    65    C    7  dz2    Ryd( 3d)     0.00072       2.12739

    66    C    8  S      Cor( 1S)     1.99926     -10.06267
    67    C    8  S      Val( 2S)     1.08319      -0.24895
    68    C    8  S      Ryd( 4S)     0.00146       0.85606
    69    C    8  S      Ryd( 3S)     0.00022       0.66012
    70    C    8  S      Ryd( 5S)     0.00000       3.86262
    71    C    8  px     Val( 2p)     1.13220      -0.05343
    72    C    8  px     Ryd( 4p)     0.00375       0.41877
    73    C    8  px     Ryd( 3p)     0.00010       0.34934
    74    C    8  py     Val( 2p)     0.99639      -0.11598
    75    C    8  py     Ryd( 4p)     0.00270       0.43680
    76    C    8  py     Ryd( 3p)     0.00026       0.34991
    77    C    8  pz     Val( 2p)     1.21758      -0.05068
    78    C    8  pz     Ryd( 4p)     0.00335       0.82377
    79    C    8  pz     Ryd( 3p)     0.00039       0.40650
    80    C    8  dxy    Ryd( 3d)     0.00064       1.90462
    81    C    8  dxz    Ryd( 3d)     0.00104       2.24905
    82    C    8  dyz    Ryd( 3d)     0.00000       1.68067
    83    C    8  dx2y2  Ryd( 3d)     0.00043       2.28013
    84    C    8  dz2    Ryd( 3d)     0.00072       2.12739

    85    H    9  S      Val( 1S)     0.77578       0.08432
    86    H    9  S      Ryd( 2S)     0.00111       0.62358

    87    H   10  S      Val( 1S)     0.77889       0.08099
    88    H   10  S      Ryd( 2S)     0.00090       0.61644

    89    H   11  S      Val( 1S)     0.77578       0.08432
    90    H   11  S      Ryd( 2S)     0.00111       0.62358

    91    H   12  S      Val( 1S)     0.77889       0.08099
    92    H   12  S      Ryd( 2S)     0.00090       0.61644

 WARNING:  Population inversion found on atom  C    1
           Population inversion found on atom  C    2
           Population inversion found on atom  C    7
           Population inversion found on atom  C    8


 Summary of Natural Population Analysis:                  
                                                          
                                       Natural Population 
                Natural  -----------------------------------------------
    Atom  No    Charge         Core      Valence    Rydberg      Total
 -----------------------------------------------------------------------
      C    1   -0.44413      1.99926     4.42995    0.01491     6.44413
      C    2   -0.44413      1.99926     4.42995    0.01491     6.44413
      H    3    0.22226      0.00000     0.77687    0.00087     0.77774
      H    4    0.22226      0.00000     0.77687    0.00087     0.77774
      H    5    0.22226      0.00000     0.77687    0.00087     0.77774
      H    6    0.22226      0.00000     0.77687    0.00087     0.77774
      C    7   -0.44370      1.99926     4.42936    0.01507     6.44370
      C    8   -0.44370      1.99926     4.42936    0.01507     6.44370
      H    9    0.22311      0.00000     0.77578    0.00111     0.77689
      H   10    0.22021      0.00000     0.77889    0.00090     0.77979
      H   11    0.22311      0.00000     0.77578    0.00111     0.77689
      H   12    0.22021      0.00000     0.77889    0.00090     0.77979
 =======================================================================
   * Total *    0.00000      7.99705    23.93546    0.06749    32.00000

                                 Natural Population      
 --------------------------------------------------------
   Core                       7.99705 ( 99.9631% of   8)
   Valence                   23.93546 ( 99.7311% of  24)
   Natural Minimal Basis     31.93251 ( 99.7891% of  32)
   Natural Rydberg Basis      0.06749 (  0.2109% of  32)
 --------------------------------------------------------

    Atom  No          Natural Electron Configuration
 ----------------------------------------------------------------------------
      C    1      [core]2S( 1.08)2p( 3.35)4p( 0.01)
      C    2      [core]2S( 1.08)2p( 3.35)4p( 0.01)
      H    3            1S( 0.78)
      H    4            1S( 0.78)
      H    5            1S( 0.78)
      H    6            1S( 0.78)
      C    7      [core]2S( 1.08)2p( 3.35)4p( 0.01)
      C    8      [core]2S( 1.08)2p( 3.35)4p( 0.01)
      H    9            1S( 0.78)
      H   10            1S( 0.78)
      H   11            1S( 0.78)
      H   12            1S( 0.78)


 NATURAL BOND ORBITAL ANALYSIS:

                       Occupancies       Lewis Structure    Low   High
           Occ.    -------------------  -----------------   occ   occ
  Cycle   Thresh.   Lewis   Non-Lewis     CR  BD  3C  LP    (L)   (NL)   Dev
 =============================================================================
   1(1)    1.90    31.88752   0.11248      4  12   0   0     0      0    0.04
 -----------------------------------------------------------------------------

 Structure accepted: No low occupancy Lewis orbitals

 --------------------------------------------------------
   Core                      7.99706 ( 99.963% of   8)
   Valence Lewis            23.89046 ( 99.544% of  24)
  ==================       ============================
   Total Lewis              31.88752 ( 99.649% of  32)
  -----------------------------------------------------
   Valence non-Lewis         0.08297 (  0.259% of  32)
   Rydberg non-Lewis         0.02951 (  0.092% of  32)
  ==================       ============================
   Total non-Lewis           0.11248 (  0.351% of  32)
 --------------------------------------------------------


       (Occupancy)   Bond orbital/ Coefficients/ Hybrids
 ---------------------------------------------------------------------------------
     1. (1.99762) BD ( 1) C   1 - C   2  
                ( 50.00%)   0.7071* C   1 s( 39.09%)p 1.56( 60.87%)d 0.00(  0.04%)
                                            0.0000  0.6246 -0.0276 -0.0033 -0.0001
                                           -0.7784  0.0471  0.0021  0.0000  0.0000
                                            0.0000  0.0224  0.0009  0.0008  0.0000
                                           -0.0006  0.0000  0.0171 -0.0114
                ( 50.00%)   0.7071* C   2 s( 39.09%)p 1.56( 60.87%)d 0.00(  0.04%)
                                            0.0000  0.6246 -0.0276 -0.0033 -0.0001
                                            0.7784 -0.0471 -0.0021  0.0000  0.0000
                                            0.0000  0.0224  0.0009  0.0008  0.0000
                                            0.0006  0.0000  0.0171 -0.0114
     2. (1.99914) BD ( 2) C   1 - C   2  
                ( 50.00%)   0.7071* C   1 s(  0.02%)p99.99( 99.92%)d 3.09(  0.06%)
                                            0.0000 -0.0141  0.0004  0.0025  0.0000
                                            0.0173 -0.0012 -0.0003  0.0000  0.0000
                                            0.0000  0.9980  0.0517 -0.0148  0.0000
                                           -0.0252  0.0000 -0.0003  0.0005
                ( 50.00%)   0.7071* C   2 s(  0.02%)p99.99( 99.92%)d 3.09(  0.06%)
                                            0.0000 -0.0141  0.0004  0.0025  0.0000
                                           -0.0173  0.0012  0.0003  0.0000  0.0000
                                            0.0000  0.9980  0.0517 -0.0148  0.0000
                                            0.0252  0.0000 -0.0003  0.0005
     3. (1.98704) BD ( 1) C   1 - H   3  
                ( 61.20%)   0.7823* C   1 s( 30.47%)p 2.28( 69.47%)d 0.00(  0.06%)
                                           -0.0002  0.5518  0.0123  0.0016  0.0000
                                            0.4414 -0.0152 -0.0010  0.7068  0.0037
                                            0.0102  0.0002 -0.0002  0.0013  0.0180
                                            0.0000  0.0000 -0.0106 -0.0135
                ( 38.80%)   0.6229* H   3 s(100.00%)
                                            1.0000  0.0023
     4. (1.98704) BD ( 1) C   1 - H   4  
                ( 61.20%)   0.7823* C   1 s( 30.47%)p 2.28( 69.47%)d 0.00(  0.06%)
                                           -0.0002  0.5518  0.0123  0.0016  0.0000
                                            0.4414 -0.0152 -0.0010 -0.7068 -0.0037
                                           -0.0102  0.0002 -0.0002  0.0013 -0.0180
                                            0.0000  0.0000 -0.0106 -0.0135
                ( 38.80%)   0.6229* H   4 s(100.00%)
                                            1.0000  0.0023
     5. (1.98704) BD ( 1) C   2 - H   5  
                ( 61.20%)   0.7823* C   2 s( 30.47%)p 2.28( 69.47%)d 0.00(  0.06%)
                                            0.0002 -0.5518 -0.0123 -0.0016  0.0000
                                            0.4414 -0.0152 -0.0010 -0.7068 -0.0037
                                           -0.0102 -0.0002  0.0002 -0.0013  0.0180
                                            0.0000  0.0000  0.0106  0.0135
                ( 38.80%)   0.6229* H   5 s(100.00%)
                                           -1.0000 -0.0023
     6. (1.98704) BD ( 1) C   2 - H   6  
                ( 61.20%)   0.7823* C   2 s( 30.47%)p 2.28( 69.47%)d 0.00(  0.06%)
                                            0.0002 -0.5518 -0.0123 -0.0016  0.0000
                                            0.4414 -0.0152 -0.0010  0.7068  0.0037
                                            0.0102 -0.0002  0.0002 -0.0013 -0.0180
                                            0.0000  0.0000  0.0106  0.0135
                ( 38.80%)   0.6229* H   6 s(100.00%)
                                           -1.0000 -0.0023
     7. (1.99998) BD ( 1) C   7 - C   8  
                ( 50.00%)   0.7071* C   7 s(  0.00%)p 1.00( 99.94%)d 0.00(  0.06%)
                                            0.0000  0.0000  0.0000  0.0000  0.0000
                                            0.0000  0.0000  0.0000  0.9982  0.0520
                                           -0.0162  0.0000  0.0000  0.0000 -0.0253
                                            0.0000  0.0002  0.0000  0.0000
                ( 50.00%)   0.7071* C   8 s(  0.00%)p 1.00( 99.94%)d 0.00(  0.06%)
                                            0.0000  0.0000  0.0000  0.0000  0.0000
                                            0.0000  0.0000  0.0000  0.9982  0.0520
                                           -0.0162  0.0000  0.0000  0.0000  0.0253
                                            0.0000  0.0002  0.0000  0.0000
     8. (1.99760) BD ( 2) C   7 - C   8  
                ( 50.00%)   0.7071* C   7 s( 39.11%)p 1.56( 60.84%)d 0.00(  0.04%)
                                            0.0000  0.6248 -0.0277 -0.0033  0.0000
                                           -0.7786  0.0470  0.0025  0.0000  0.0000
                                            0.0000  0.0004  0.0003 -0.0007  0.0000
                                           -0.0001  0.0000  0.0183 -0.0090
                ( 50.00%)   0.7071* C   8 s( 39.11%)p 1.56( 60.84%)d 0.00(  0.04%)
                                            0.0000  0.6248 -0.0277 -0.0033  0.0000
                                            0.7786 -0.0470 -0.0025  0.0000  0.0000
                                            0.0000  0.0004  0.0003 -0.0007  0.0000
                                            0.0001  0.0000  0.0183 -0.0090
     9. (1.98692) BD ( 1) C   7 - H   9  
                ( 61.26%)   0.7827* C   7 s( 30.52%)p 2.27( 69.41%)d 0.00(  0.06%)
                                           -0.0002  0.5523  0.0124  0.0017  0.0000
                                            0.4415 -0.0145 -0.0007  0.0000  0.0000
                                            0.0000 -0.7063 -0.0031 -0.0123  0.0000
                                           -0.0179  0.0000  0.0065  0.0159
                ( 38.74%)   0.6225* H   9 s(100.00%)
                                            1.0000  0.0024
    10. (1.98706) BD ( 1) C   7 - H  10  
                ( 61.10%)   0.7817* C   7 s( 30.40%)p 2.29( 69.53%)d 0.00(  0.06%)
                                           -0.0002  0.5512  0.0123  0.0014  0.0000
                                            0.4413 -0.0154 -0.0012  0.0000  0.0000
                                            0.0000  0.7073  0.0037  0.0101  0.0000
                                            0.0180  0.0000  0.0065  0.0160
                ( 38.90%)   0.6237* H  10 s(100.00%)
                                            1.0000  0.0023
    11. (1.98692) BD ( 1) C   8 - H  11  
                ( 61.26%)   0.7827* C   8 s( 30.52%)p 2.27( 69.41%)d 0.00(  0.06%)
                                            0.0002 -0.5523 -0.0124 -0.0017  0.0000
                                            0.4415 -0.0145 -0.0007  0.0000  0.0000
                                            0.0000  0.7063  0.0031  0.0123  0.0000
                                           -0.0179  0.0000 -0.0065 -0.0159
                ( 38.74%)   0.6225* H  11 s(100.00%)
                                           -1.0000 -0.0024
    12. (1.98706) BD ( 1) C   8 - H  12  
                ( 61.10%)   0.7817* C   8 s( 30.40%)p 2.29( 69.53%)d 0.00(  0.06%)
                                            0.0002 -0.5512 -0.0123 -0.0014  0.0000
                                            0.4413 -0.0154 -0.0012  0.0000  0.0000
                                            0.0000 -0.7073 -0.0037 -0.0101  0.0000
                                            0.0180  0.0000 -0.0065 -0.0160
                ( 38.90%)   0.6237* H  12 s(100.00%)
                                           -1.0000 -0.0023
    13. (1.99927) CR ( 1) C   1           s(100.00%)p 0.00(  0.00%)
                                            1.0000  0.0002  0.0000  0.0000  0.0000
                                            0.0002  0.0000  0.0000  0.0000  0.0000
                                            0.0000  0.0000  0.0000  0.0000  0.0000
                                            0.0000  0.0000  0.0000  0.0000
    14. (1.99927) CR ( 1) C   2           s(100.00%)p 0.00(  0.00%)
                                            1.0000  0.0002  0.0000  0.0000  0.0000
                                           -0.0002  0.0000  0.0000  0.0000  0.0000
                                            0.0000  0.0000  0.0000  0.0000  0.0000
                                            0.0000  0.0000  0.0000  0.0000
    15. (1.99927) CR ( 1) C   7           s(100.00%)p 0.00(  0.00%)
                                            1.0000  0.0002  0.0000  0.0000  0.0000
                                            0.0002  0.0000  0.0000  0.0000  0.0000
                                            0.0000  0.0000  0.0000  0.0000  0.0000
                                            0.0000  0.0000  0.0000  0.0000
    16. (1.99927) CR ( 1) C   8           s(100.00%)p 0.00(  0.00%)
                                            1.0000  0.0002  0.0000  0.0000  0.0000
                                           -0.0002  0.0000  0.0000  0.0000  0.0000
                                            0.0000  0.0000  0.0000  0.0000  0.0000
                                            0.0000  0.0000  0.0000  0.0000
    17. (0.00373) RY*( 1) C   1           s(  0.00%)p 1.00( 91.27%)d 0.10(  8.73%)
                                            0.0000  0.0000  0.0000  0.0000  0.0000
                                            0.0000  0.0000  0.0000 -0.0140  0.9497
                                            0.1031  0.0000  0.0000  0.0000  0.2954
                                            0.0000  0.0001  0.0000  0.0000
    18. (0.00155) RY*( 2) C   1           s( 26.24%)p 2.80( 73.57%)d 0.01(  0.19%)
                                            0.0000  0.0113  0.4567 -0.2316 -0.0081
                                           -0.0566 -0.8263 -0.2207  0.0000  0.0000
                                            0.0000  0.0014 -0.0081  0.0312  0.0000
                                            0.0006  0.0000 -0.0194 -0.0385
    19. (0.00011) RY*( 3) C   1           s( 85.75%)p 0.11(  9.53%)d 0.06(  4.72%)
                                            0.0000  0.0068 -0.0324  0.9245 -0.0423
                                           -0.0184 -0.2567 -0.0676  0.0000  0.0000
                                            0.0000  0.0051 -0.1152  0.1059  0.0000
                                           -0.0063  0.0000 -0.1361  0.1691
    20. (0.00004) RY*( 4) C   1           s( 10.11%)p 8.57( 86.63%)d 0.32(  3.25%)
    21. (0.00001) RY*( 5) C   1           s(  1.56%)p63.25( 98.40%)d 0.03(  0.05%)
    22. (0.00000) RY*( 6) C   1           s( 98.62%)p 0.01(  1.37%)d 0.00(  0.01%)
    23. (0.00001) RY*( 7) C   1           s(  0.00%)p 1.00(100.00%)d 0.00(  0.00%)
    24. (0.00001) RY*( 8) C   1           s(  9.97%)p 9.01( 89.85%)d 0.02(  0.18%)
    25. (0.00000) RY*( 9) C   1           s( 60.05%)p 0.65( 39.06%)d 0.01(  0.88%)
    26. (0.00000) RY*(10) C   1           s(  0.00%)p 1.00(  8.79%)d10.38( 91.21%)
    27. (0.00000) RY*(11) C   1           s(  0.00%)p 1.00(  0.09%)d99.99( 99.91%)
    28. (0.00000) RY*(12) C   1           s(  0.00%)p 0.00(  0.00%)d 1.00(100.00%)
    29. (0.00000) RY*(13) C   1           s(  3.77%)p 0.04(  0.16%)d25.46( 96.07%)
    30. (0.00001) RY*(14) C   1           s(  3.88%)p 0.40(  1.55%)d24.40( 94.57%)
    31. (0.00373) RY*( 1) C   2           s(  0.00%)p 1.00( 91.27%)d 0.10(  8.73%)
                                            0.0000  0.0000  0.0000  0.0000  0.0000
                                            0.0000  0.0000  0.0000 -0.0140  0.9497
                                            0.1031  0.0000  0.0000  0.0000 -0.2954
                                            0.0000  0.0001  0.0000  0.0000
    32. (0.00155) RY*( 2) C   2           s( 26.24%)p 2.80( 73.57%)d 0.01(  0.19%)
                                            0.0000  0.0113  0.4567 -0.2316 -0.0081
                                            0.0566  0.8263  0.2207  0.0000  0.0000
                                            0.0000  0.0014 -0.0081  0.0312  0.0000
                                           -0.0006  0.0000 -0.0194 -0.0385
    33. (0.00011) RY*( 3) C   2           s( 85.75%)p 0.11(  9.53%)d 0.06(  4.72%)
                                            0.0000  0.0068 -0.0324  0.9245 -0.0423
                                            0.0184  0.2567  0.0676  0.0000  0.0000
                                            0.0000  0.0051 -0.1152  0.1059  0.0000
                                            0.0063  0.0000 -0.1361  0.1691
    34. (0.00004) RY*( 4) C   2           s( 10.11%)p 8.57( 86.63%)d 0.32(  3.25%)
    35. (0.00001) RY*( 5) C   2           s(  1.56%)p63.25( 98.40%)d 0.03(  0.05%)
    36. (0.00000) RY*( 6) C   2           s( 98.62%)p 0.01(  1.37%)d 0.00(  0.01%)
    37. (0.00001) RY*( 7) C   2           s(  0.00%)p 1.00(100.00%)d 0.00(  0.00%)
    38. (0.00001) RY*( 8) C   2           s(  9.97%)p 9.01( 89.85%)d 0.02(  0.18%)
    39. (0.00000) RY*( 9) C   2           s( 60.05%)p 0.65( 39.06%)d 0.01(  0.88%)
    40. (0.00000) RY*(10) C   2           s(  0.00%)p 1.00(  8.79%)d10.38( 91.21%)
    41. (0.00000) RY*(11) C   2           s(  0.00%)p 1.00(  0.09%)d99.99( 99.91%)
    42. (0.00000) RY*(12) C   2           s(  0.00%)p 0.00(  0.00%)d 1.00(100.00%)
    43. (0.00000) RY*(13) C   2           s(  3.77%)p 0.04(  0.16%)d25.46( 96.07%)
    44. (0.00001) RY*(14) C   2           s(  3.88%)p 0.40(  1.55%)d24.40( 94.57%)
    45. (0.00088) RY*( 1) H   3           s(100.00%)
                                           -0.0023  1.0000
    46. (0.00088) RY*( 1) H   4           s(100.00%)
                                           -0.0023  1.0000
    47. (0.00088) RY*( 1) H   5           s(100.00%)
                                           -0.0023  1.0000
    48. (0.00088) RY*( 1) H   6           s(100.00%)
                                           -0.0023  1.0000
    49. (0.00374) RY*( 1) C   7           s(  0.00%)p 1.00( 91.31%)d 0.10(  8.69%)
                                            0.0000 -0.0004  0.0061 -0.0025  0.0023
                                            0.0000  0.0056 -0.0097  0.0000  0.0000
                                            0.0000 -0.0139  0.9484  0.1156  0.0000
                                            0.2947  0.0000  0.0009  0.0000
    50. (0.00158) RY*( 2) C   7           s( 26.39%)p 2.78( 73.43%)d 0.01(  0.18%)
                                            0.0000  0.0115  0.4493 -0.2488 -0.0044
                                           -0.0560 -0.8231 -0.2314  0.0000  0.0000
                                            0.0000 -0.0006 -0.0008 -0.0087  0.0000
                                            0.0024  0.0000  0.0237  0.0354
    51. (0.00011) RY*( 3) C   7           s( 83.12%)p 0.15( 12.85%)d 0.05(  4.03%)
                                            0.0000  0.0050  0.1722  0.8951  0.0146
                                           -0.0192 -0.1325 -0.1524  0.0000  0.0000
                                            0.0000  0.0057  0.0511 -0.2911  0.0000
                                           -0.0482  0.0000 -0.1863  0.0570
    52. (0.00007) RY*( 4) C   7           s( 22.28%)p 3.26( 72.58%)d 0.23(  5.14%)
    53. (0.00000) RY*( 5) C   7           s( 22.76%)p 3.34( 75.94%)d 0.06(  1.30%)
    54. (0.00000) RY*( 6) C   7           s(  0.00%)p 1.00(100.00%)d 0.00(  0.00%)
    55. (0.00000) RY*( 7) C   7           s(  0.00%)p 1.00(100.00%)d 0.00(  0.00%)
    56. (0.00000) RY*( 8) C   7           s( 98.07%)p 0.02(  1.85%)d 0.00(  0.08%)
    57. (0.00000) RY*( 9) C   7           s( 36.29%)p 1.61( 58.54%)d 0.14(  5.17%)
    58. (0.00000) RY*(10) C   7           s(  0.00%)p 1.00(  0.06%)d99.99( 99.94%)
    59. (0.00000) RY*(11) C   7           s(  0.29%)p34.50( 10.12%)d99.99( 89.59%)
    60. (0.00000) RY*(12) C   7           s(  0.00%)p 0.00(  0.00%)d 1.00(100.00%)
    61. (0.00000) RY*(13) C   7           s( 10.45%)p 0.29(  3.05%)d 8.28( 86.50%)
    62. (0.00000) RY*(14) C   7           s(  0.31%)p 1.81(  0.55%)d99.99( 99.14%)
    63. (0.00374) RY*( 1) C   8           s(  0.00%)p 1.00( 91.31%)d 0.10(  8.69%)
                                            0.0000 -0.0004  0.0061 -0.0025  0.0023
                                            0.0000 -0.0056  0.0097  0.0000  0.0000
                                            0.0000 -0.0139  0.9484  0.1156  0.0000
                                           -0.2947  0.0000  0.0009  0.0000
    64. (0.00158) RY*( 2) C   8           s( 26.39%)p 2.78( 73.43%)d 0.01(  0.18%)
                                            0.0000  0.0115  0.4493 -0.2488 -0.0044
                                            0.0560  0.8231  0.2314  0.0000  0.0000
                                            0.0000 -0.0006 -0.0008 -0.0087  0.0000
                                           -0.0024  0.0000  0.0237  0.0354
    65. (0.00011) RY*( 3) C   8           s( 83.12%)p 0.15( 12.85%)d 0.05(  4.03%)
                                            0.0000  0.0050  0.1722  0.8951  0.0146
                                            0.0192  0.1325  0.1524  0.0000  0.0000
                                            0.0000  0.0057  0.0511 -0.2911  0.0000
                                            0.0482  0.0000 -0.1863  0.0570
    66. (0.00007) RY*( 4) C   8           s( 22.28%)p 3.26( 72.58%)d 0.23(  5.14%)
    67. (0.00000) RY*( 5) C   8           s( 22.76%)p 3.34( 75.94%)d 0.06(  1.30%)
    68. (0.00000) RY*( 6) C   8           s(  0.00%)p 1.00(100.00%)d 0.00(  0.00%)
    69. (0.00000) RY*( 7) C   8           s(  0.00%)p 1.00(100.00%)d 0.00(  0.00%)
    70. (0.00000) RY*( 8) C   8           s( 98.07%)p 0.02(  1.85%)d 0.00(  0.08%)
    71. (0.00000) RY*( 9) C   8           s( 36.29%)p 1.61( 58.54%)d 0.14(  5.17%)
    72. (0.00000) RY*(10) C   8           s(  0.00%)p 1.00(  0.06%)d99.99( 99.94%)
    73. (0.00000) RY*(11) C   8           s(  0.29%)p34.50( 10.12%)d99.99( 89.59%)
    74. (0.00000) RY*(12) C   8           s(  0.00%)p 0.00(  0.00%)d 1.00(100.00%)
    75. (0.00000) RY*(13) C   8           s( 10.45%)p 0.29(  3.05%)d 8.28( 86.50%)
    76. (0.00000) RY*(14) C   8           s(  0.31%)p 1.81(  0.55%)d99.99( 99.14%)
    77. (0.00111) RY*( 1) H   9           s(100.00%)
                                           -0.0024  1.0000
    78. (0.00090) RY*( 1) H  10           s(100.00%)
                                           -0.0023  1.0000
    79. (0.00111) RY*( 1) H  11           s(100.00%)
                                           -0.0024  1.0000
    80. (0.00090) RY*( 1) H  12           s(100.00%)
                                           -0.0023  1.0000
    81. (0.00290) BD*( 1) C   1 - C   2  
                ( 50.00%)   0.7071* C   1 s( 39.09%)p 1.56( 60.87%)d 0.00(  0.04%)
                                            0.0000  0.6246 -0.0276 -0.0033 -0.0001
                                           -0.7784  0.0471  0.0021  0.0000  0.0000
                                            0.0000  0.0224  0.0009  0.0008  0.0000
                                           -0.0006  0.0000  0.0171 -0.0114
                ( 50.00%)  -0.7071* C   2 s( 39.09%)p 1.56( 60.87%)d 0.00(  0.04%)
                                            0.0000  0.6246 -0.0276 -0.0033 -0.0001
                                            0.7784 -0.0471 -0.0021  0.0000  0.0000
                                            0.0000  0.0224  0.0009  0.0008  0.0000
                                            0.0006  0.0000  0.0171 -0.0114
    82. (0.00005) BD*( 2) C   1 - C   2  
                ( 50.00%)   0.7071* C   1 s(  0.02%)p99.99( 99.92%)d 3.09(  0.06%)
                ( 50.00%)  -0.7071* C   2 s(  0.02%)p99.99( 99.92%)d 3.09(  0.06%)
    83. (0.00960) BD*( 1) C   1 - H   3  
                ( 38.80%)   0.6229* C   1 s( 30.47%)p 2.28( 69.47%)d 0.00(  0.06%)
                                            0.0002 -0.5518 -0.0123 -0.0016  0.0000
                                           -0.4414  0.0152  0.0010 -0.7068 -0.0037
                                           -0.0102 -0.0002  0.0002 -0.0013 -0.0180
                                            0.0000  0.0000  0.0106  0.0135
                ( 61.20%)  -0.7823* H   3 s(100.00%)
                                           -1.0000 -0.0023
    84. (0.00960) BD*( 1) C   1 - H   4  
                ( 38.80%)   0.6229* C   1 s( 30.47%)p 2.28( 69.47%)d 0.00(  0.06%)
                                            0.0002 -0.5518 -0.0123 -0.0016  0.0000
                                           -0.4414  0.0152  0.0010  0.7068  0.0037
                                            0.0102 -0.0002  0.0002 -0.0013  0.0180
                                            0.0000  0.0000  0.0106  0.0135
                ( 61.20%)  -0.7823* H   4 s(100.00%)
                                           -1.0000 -0.0023
    85. (0.00960) BD*( 1) C   2 - H   5  
                ( 38.80%)   0.6229* C   2 s( 30.47%)p 2.28( 69.47%)d 0.00(  0.06%)
                                           -0.0002  0.5518  0.0123  0.0016  0.0000
                                           -0.4414  0.0152  0.0010  0.7068  0.0037
                                            0.0102  0.0002 -0.0002  0.0013 -0.0180
                                            0.0000  0.0000 -0.0106 -0.0135
                ( 61.20%)  -0.7823* H   5 s(100.00%)
                                            1.0000  0.0023
    86. (0.00960) BD*( 1) C   2 - H   6  
                ( 38.80%)   0.6229* C   2 s( 30.47%)p 2.28( 69.47%)d 0.00(  0.06%)
                                           -0.0002  0.5518  0.0123  0.0016  0.0000
                                           -0.4414  0.0152  0.0010 -0.7068 -0.0037
                                           -0.0102  0.0002 -0.0002  0.0013  0.0180
                                            0.0000  0.0000 -0.0106 -0.0135
                ( 61.20%)  -0.7823* H   6 s(100.00%)
                                            1.0000  0.0023
    87. (0.00000) BD*( 1) C   7 - C   8  
                ( 50.00%)   0.7071* C   7 s(  0.00%)p 1.00( 99.94%)d 0.00(  0.06%)
                ( 50.00%)  -0.7071* C   8 s(  0.00%)p 1.00( 99.94%)d 0.00(  0.06%)
    88. (0.00291) BD*( 2) C   7 - C   8  
                ( 50.00%)   0.7071* C   7 s( 39.11%)p 1.56( 60.84%)d 0.00(  0.04%)
                                            0.0000  0.6248 -0.0277 -0.0033  0.0000
                                           -0.7786  0.0470  0.0025  0.0000  0.0000
                                            0.0000  0.0004  0.0003 -0.0007  0.0000
                                           -0.0001  0.0000  0.0183 -0.0090
                ( 50.00%)  -0.7071* C   8 s( 39.11%)p 1.56( 60.84%)d 0.00(  0.04%)
                                            0.0000  0.6248 -0.0277 -0.0033  0.0000
                                            0.7786 -0.0470 -0.0025  0.0000  0.0000
                                            0.0000  0.0004  0.0003 -0.0007  0.0000
                                            0.0001  0.0000  0.0183 -0.0090
    89. (0.00972) BD*( 1) C   7 - H   9  
                ( 38.74%)   0.6225* C   7 s( 30.52%)p 2.27( 69.41%)d 0.00(  0.06%)
                                            0.0002 -0.5523 -0.0124 -0.0017  0.0000
                                           -0.4415  0.0145  0.0007  0.0000  0.0000
                                            0.0000  0.7063  0.0031  0.0123  0.0000
                                            0.0179  0.0000 -0.0065 -0.0159
                ( 61.26%)  -0.7827* H   9 s(100.00%)
                                           -1.0000 -0.0024
    90. (0.00963) BD*( 1) C   7 - H  10  
                ( 38.90%)   0.6237* C   7 s( 30.40%)p 2.29( 69.53%)d 0.00(  0.06%)
                                            0.0002 -0.5512 -0.0123 -0.0014  0.0000
                                           -0.4413  0.0154  0.0012  0.0000  0.0000
                                            0.0000 -0.7073 -0.0037 -0.0101  0.0000
                                           -0.0180  0.0000 -0.0065 -0.0160
                ( 61.10%)  -0.7817* H  10 s(100.00%)
                                           -1.0000 -0.0023
    91. (0.00972) BD*( 1) C   8 - H  11  
                ( 38.74%)   0.6225* C   8 s( 30.52%)p 2.27( 69.41%)d 0.00(  0.06%)
                                           -0.0002  0.5523  0.0124  0.0017  0.0000
                                           -0.4415  0.0145  0.0007  0.0000  0.0000
                                            0.0000 -0.7063 -0.0031 -0.0123  0.0000
                                            0.0179  0.0000  0.0065  0.0159
                ( 61.26%)  -0.7827* H  11 s(100.00%)
                                            1.0000  0.0024
    92. (0.00963) BD*( 1) C   8 - H  12  
                ( 38.90%)   0.6237* C   8 s( 30.40%)p 2.29( 69.53%)d 0.00(  0.06%)
                                           -0.0002  0.5512  0.0123  0.0014  0.0000
                                           -0.4413  0.0154  0.0012  0.0000  0.0000
                                            0.0000  0.7073  0.0037  0.0101  0.0000
                                           -0.0180  0.0000  0.0065  0.0160
                ( 61.10%)  -0.7817* H  12 s(100.00%)
                                            1.0000  0.0023


 NHO Directionality and "Bond Bending" (deviations from line of nuclear centers)

         [Thresholds for printing:  angular deviation  >  1.0 degree]
                                    hybrid p-character > 25.0%
                                    orbital occupancy  >  0.10e

                                Line of Centers        Hybrid 1              Hybrid 2
                                ---------------  -------------------   ------------------
                NBO               Theta   Phi    Theta   Phi    Dev    Theta   Phi    Dev
 ========================================================================================
     1. BD (   1) C   1 - C   2    90.0  180.0    88.1  180.0   1.9     88.1    0.0   1.9
     2. BD (   2) C   1 - C   2    90.0  180.0   179.1  180.0  89.1    179.1    0.0  89.1
     7. BD (   1) C   7 - C   8    90.0  180.0    90.0   90.0  90.0     90.0   90.0  90.0


 Second Order Perturbation Theory Analysis of Fock Matrix in NBO Basis

     Threshold for printing:   0.50 kcal/mol
    (Intermolecular threshold: 0.05 kcal/mol)
                                                                              E(2)  E(j)-E(i) F(i,j)
         Donor NBO (i)                     Acceptor NBO (j)                 kcal/mol   a.u.    a.u. 
 ===================================================================================================

 within unit  1
   1. BD (   1) C   1 - C   2        / 83. BD*(   1) C   1 - H   3            0.68    1.20    0.026
   1. BD (   1) C   1 - C   2        / 84. BD*(   1) C   1 - H   4            0.68    1.20    0.026
   1. BD (   1) C   1 - C   2        / 85. BD*(   1) C   2 - H   5            0.68    1.20    0.026
   1. BD (   1) C   1 - C   2        / 86. BD*(   1) C   2 - H   6            0.68    1.20    0.026
   3. BD (   1) C   1 - H   3        / 31. RY*(   1) C   2                    1.43    1.56    0.042
   3. BD (   1) C   1 - H   3        / 32. RY*(   2) C   2                    0.65    1.09    0.024
   3. BD (   1) C   1 - H   3        / 81. BD*(   1) C   1 - C   2            0.72    1.16    0.026
   3. BD (   1) C   1 - H   3        / 86. BD*(   1) C   2 - H   6            4.33    0.99    0.058
   4. BD (   1) C   1 - H   4        / 31. RY*(   1) C   2                    1.43    1.56    0.042
   4. BD (   1) C   1 - H   4        / 32. RY*(   2) C   2                    0.65    1.09    0.024
   4. BD (   1) C   1 - H   4        / 81. BD*(   1) C   1 - C   2            0.72    1.16    0.026
   4. BD (   1) C   1 - H   4        / 85. BD*(   1) C   2 - H   5            4.33    0.99    0.058
   5. BD (   1) C   2 - H   5        / 17. RY*(   1) C   1                    1.43    1.56    0.042
   5. BD (   1) C   2 - H   5        / 18. RY*(   2) C   1                    0.65    1.09    0.024
   5. BD (   1) C   2 - H   5        / 81. BD*(   1) C   1 - C   2            0.72    1.16    0.026
   5. BD (   1) C   2 - H   5        / 84. BD*(   1) C   1 - H   4            4.33    0.99    0.058
   6. BD (   1) C   2 - H   6        / 17. RY*(   1) C   1                    1.43    1.56    0.042
   6. BD (   1) C   2 - H   6        / 18. RY*(   2) C   1                    0.65    1.09    0.024
   6. BD (   1) C   2 - H   6        / 81. BD*(   1) C   1 - C   2            0.72    1.16    0.026
   6. BD (   1) C   2 - H   6        / 83. BD*(   1) C   1 - H   3            4.33    0.99    0.058
  13. CR (   1) C   1                / 32. RY*(   2) C   2                    2.80   10.63    0.154
  13. CR (   1) C   1                / 81. BD*(   1) C   1 - C   2            0.71   10.70    0.078
  13. CR (   1) C   1                / 85. BD*(   1) C   2 - H   5            0.67   10.53    0.075
  13. CR (   1) C   1                / 86. BD*(   1) C   2 - H   6            0.67   10.53    0.075
  14. CR (   1) C   2                / 18. RY*(   2) C   1                    2.80   10.63    0.154
  14. CR (   1) C   2                / 81. BD*(   1) C   1 - C   2            0.71   10.70    0.078
  14. CR (   1) C   2                / 83. BD*(   1) C   1 - H   3            0.67   10.53    0.075
  14. CR (   1) C   2                / 84. BD*(   1) C   1 - H   4            0.67   10.53    0.075

 from unit  1 to unit  2
       None above threshold

 from unit  2 to unit  1
       None above threshold

 within unit  2
   8. BD (   2) C   7 - C   8        / 89. BD*(   1) C   7 - H   9            0.69    1.21    0.026
   8. BD (   2) C   7 - C   8        / 90. BD*(   1) C   7 - H  10            0.68    1.20    0.026
   8. BD (   2) C   7 - C   8        / 91. BD*(   1) C   8 - H  11            0.69    1.21    0.026
   8. BD (   2) C   7 - C   8        / 92. BD*(   1) C   8 - H  12            0.68    1.20    0.026
   9. BD (   1) C   7 - H   9        / 63. RY*(   1) C   8                    1.44    1.56    0.042
   9. BD (   1) C   7 - H   9        / 64. RY*(   2) C   8                    0.66    1.08    0.024
   9. BD (   1) C   7 - H   9        / 88. BD*(   2) C   7 - C   8            0.74    1.16    0.026
   9. BD (   1) C   7 - H   9        / 92. BD*(   1) C   8 - H  12            4.32    0.99    0.058
  10. BD (   1) C   7 - H  10        / 63. RY*(   1) C   8                    1.42    1.56    0.042
  10. BD (   1) C   7 - H  10        / 64. RY*(   2) C   8                    0.65    1.08    0.024
  10. BD (   1) C   7 - H  10        / 88. BD*(   2) C   7 - C   8            0.71    1.16    0.026
  10. BD (   1) C   7 - H  10        / 91. BD*(   1) C   8 - H  11            4.31    0.99    0.058
  11. BD (   1) C   8 - H  11        / 49. RY*(   1) C   7                    1.44    1.56    0.042
  11. BD (   1) C   8 - H  11        / 50. RY*(   2) C   7                    0.66    1.08    0.024
  11. BD (   1) C   8 - H  11        / 88. BD*(   2) C   7 - C   8            0.74    1.16    0.026
  11. BD (   1) C   8 - H  11        / 90. BD*(   1) C   7 - H  10            4.32    0.99    0.058
  12. BD (   1) C   8 - H  12        / 49. RY*(   1) C   7                    1.42    1.56    0.042
  12. BD (   1) C   8 - H  12        / 50. RY*(   2) C   7                    0.65    1.08    0.024
  12. BD (   1) C   8 - H  12        / 88. BD*(   2) C   7 - C   8            0.71    1.16    0.026
  12. BD (   1) C   8 - H  12        / 89. BD*(   1) C   7 - H   9            4.31    0.99    0.058
  15. CR (   1) C   7                / 64. RY*(   2) C   8                    2.75   10.63    0.153
  15. CR (   1) C   7                / 88. BD*(   2) C   7 - C   8            0.71   10.70    0.078
  15. CR (   1) C   7                / 91. BD*(   1) C   8 - H  11            0.67   10.53    0.075
  15. CR (   1) C   7                / 92. BD*(   1) C   8 - H  12            0.67   10.53    0.075
  16. CR (   1) C   8                / 50. RY*(   2) C   7                    2.75   10.63    0.153
  16. CR (   1) C   8                / 88. BD*(   2) C   7 - C   8            0.71   10.70    0.078
  16. CR (   1) C   8                / 89. BD*(   1) C   7 - H   9            0.67   10.53    0.075
  16. CR (   1) C   8                / 90. BD*(   1) C   7 - H  10            0.67   10.53    0.075


 Natural Bond Orbitals (Summary):

                                                            Principal Delocalizations
           NBO                        Occupancy    Energy   (geminal,vicinal,remote)
 ====================================================================================
 Molecular unit  1  (C2H4)
     1. BD (   1) C   1 - C   2          1.99762    -0.74160  83(g),84(g),85(g),86(g)
     2. BD (   2) C   1 - C   2          1.99914    -0.27778   
     3. BD (   1) C   1 - H   3          1.98704    -0.52518  86(v),31(v),81(g),32(v)
     4. BD (   1) C   1 - H   4          1.98704    -0.52518  85(v),31(v),81(g),32(v)
     5. BD (   1) C   2 - H   5          1.98704    -0.52518  84(v),17(v),81(g),18(v)
     6. BD (   1) C   2 - H   6          1.98704    -0.52518  83(v),17(v),81(g),18(v)
    13. CR (   1) C   1                  1.99927   -10.06741  32(v),81(g),85(v),86(v)
    14. CR (   1) C   2                  1.99927   -10.06741  18(v),81(g),83(v),84(v)
    17. RY*(   1) C   1                  0.00373     1.03379   
    18. RY*(   2) C   1                  0.00155     0.56319   
    19. RY*(   3) C   1                  0.00011     0.62820   
    20. RY*(   4) C   1                  0.00004     0.31304   
    21. RY*(   5) C   1                  0.00001     0.25198   
    22. RY*(   6) C   1                  0.00000     3.90796   
    23. RY*(   7) C   1                  0.00001     0.31600   
    24. RY*(   8) C   1                  0.00001     0.72128   
    25. RY*(   9) C   1                  0.00000     0.75115   
    26. RY*(  10) C   1                  0.00000     2.06998   
    27. RY*(  11) C   1                  0.00000     1.89777   
    28. RY*(  12) C   1                  0.00000     1.67613   
    29. RY*(  13) C   1                  0.00000     2.22835   
    30. RY*(  14) C   1                  0.00001     2.05277   
    31. RY*(   1) C   2                  0.00373     1.03379   
    32. RY*(   2) C   2                  0.00155     0.56319   
    33. RY*(   3) C   2                  0.00011     0.62820   
    34. RY*(   4) C   2                  0.00004     0.31304   
    35. RY*(   5) C   2                  0.00001     0.25198   
    36. RY*(   6) C   2                  0.00000     3.90796   
    37. RY*(   7) C   2                  0.00001     0.31600   
    38. RY*(   8) C   2                  0.00001     0.72128   
    39. RY*(   9) C   2                  0.00000     0.75115   
    40. RY*(  10) C   2                  0.00000     2.06998   
    41. RY*(  11) C   2                  0.00000     1.89777   
    42. RY*(  12) C   2                  0.00000     1.67613   
    43. RY*(  13) C   2                  0.00000     2.22835   
    44. RY*(  14) C   2                  0.00001     2.05277   
    45. RY*(   1) H   3                  0.00088     0.61352   
    46. RY*(   1) H   4                  0.00088     0.61352   
    47. RY*(   1) H   5                  0.00088     0.61352   
    48. RY*(   1) H   6                  0.00088     0.61352   
    81. BD*(   1) C   1 - C   2          0.00290     0.63241   
    82. BD*(   2) C   1 - C   2          0.00005     0.02756   
    83. BD*(   1) C   1 - H   3          0.00960     0.46322   
    84. BD*(   1) C   1 - H   4          0.00960     0.46322   
    85. BD*(   1) C   2 - H   5          0.00960     0.46322   
    86. BD*(   1) C   2 - H   6          0.00960     0.46322   
       -------------------------------
              Total Lewis   15.94344  ( 99.6514%)
        Valence non-Lewis    0.04136  (  0.2585%)
        Rydberg non-Lewis    0.01442  (  0.0901%)
       -------------------------------
            Total unit  1   15.99922  (100.0000%)
           Charge unit  1    0.00078

 Molecular unit  2  (C2H4)
     7. BD (   1) C   7 - C   8          1.99998    -0.27322   
     8. BD (   2) C   7 - C   8          1.99760    -0.73716  89(g),91(g),90(g),92(g)
     9. BD (   1) C   7 - H   9          1.98692    -0.52035  92(v),63(v),88(g),64(v)
    10. BD (   1) C   7 - H  10          1.98706    -0.52115  91(v),63(v),88(g),64(v)
    11. BD (   1) C   8 - H  11          1.98692    -0.52035  90(v),49(v),88(g),50(v)
    12. BD (   1) C   8 - H  12          1.98706    -0.52115  89(v),49(v),88(g),50(v)
    15. CR (   1) C   7                  1.99927   -10.06303  64(v),88(g),92(v),91(v)
    16. CR (   1) C   8                  1.99927   -10.06303  50(v),88(g),90(v),89(v)
    49. RY*(   1) C   7                  0.00374     1.03476   
    50. RY*(   2) C   7                  0.00158     0.56341   
    51. RY*(   3) C   7                  0.00011     0.78810   
    52. RY*(   4) C   7                  0.00007     0.49443   
    53. RY*(   5) C   7                  0.00000     0.43668   
    54. RY*(   6) C   7                  0.00000     0.44417   
    55. RY*(   7) C   7                  0.00000     0.34914   
    56. RY*(   8) C   7                  0.00000     3.86157   
    57. RY*(   9) C   7                  0.00000     0.68546   
    58. RY*(  10) C   7                  0.00000     1.90281   
    59. RY*(  11) C   7                  0.00000     2.02674   
    60. RY*(  12) C   7                  0.00000     1.68067   
    61. RY*(  13) C   7                  0.00000     2.00601   
    62. RY*(  14) C   7                  0.00000     2.10737   
    63. RY*(   1) C   8                  0.00374     1.03476   
    64. RY*(   2) C   8                  0.00158     0.56341   
    65. RY*(   3) C   8                  0.00011     0.78810   
    66. RY*(   4) C   8                  0.00007     0.49443   
    67. RY*(   5) C   8                  0.00000     0.43668   
    68. RY*(   6) C   8                  0.00000     0.44417   
    69. RY*(   7) C   8                  0.00000     0.34914   
    70. RY*(   8) C   8                  0.00000     3.86157   
    71. RY*(   9) C   8                  0.00000     0.68546   
    72. RY*(  10) C   8                  0.00000     1.90281   
    73. RY*(  11) C   8                  0.00000     2.02674   
    74. RY*(  12) C   8                  0.00000     1.68067   
    75. RY*(  13) C   8                  0.00000     2.00601   
    76. RY*(  14) C   8                  0.00000     2.10737   
    77. RY*(   1) H   9                  0.00111     0.62222   
    78. RY*(   1) H  10                  0.00090     0.61517   
    79. RY*(   1) H  11                  0.00111     0.62222   
    80. RY*(   1) H  12                  0.00090     0.61517   
    87. BD*(   1) C   7 - C   8          0.00000     0.03167   
    88. BD*(   2) C   7 - C   8          0.00291     0.63692   
    89. BD*(   1) C   7 - H   9          0.00972     0.46940   
    90. BD*(   1) C   7 - H  10          0.00963     0.46667   
    91. BD*(   1) C   8 - H  11          0.00972     0.46940   
    92. BD*(   1) C   8 - H  12          0.00963     0.46667   
       -------------------------------
              Total Lewis   15.94408  ( 99.6457%)
        Valence non-Lewis    0.04161  (  0.2601%)
        Rydberg non-Lewis    0.01508  (  0.0942%)
       -------------------------------
            Total unit  2   16.00077  (100.0000%)
           Charge unit  2   -0.00077
 1\1\GINC-RSWPRH01\SP\RB3LYP\6-31+G(d)\C4H8\ROOT\18-Sep-2016\0\\# B3LYP
 /6-31+G* int=ultrafine nosymm pop=nboread\\A_B_90\\0,1\C,0,0.672749,0.
 ,0.\C,0,-0.672749,0.,0.\H,0,1.242623,0.934806,0.\H,0,1.242623,-0.93480
 6,0.\H,0,-1.242623,0.934806,0.\H,0,-1.242623,-0.934806,0.\C,0,0.672749
 ,0.,5.\C,0,-0.672749,0.,5.\H,0,1.242623,0.,4.065194\H,0,1.242623,0.,5.
 934806\H,0,-1.242623,0.,4.065194\H,0,-1.242623,0.,5.934806\\Version=ES
 64L-G09RevD.01\HF=-157.1861135\RMSD=4.020e-09\Dipole=0.,0.,-0.0207985\
 Quadrupole=1.9277243,-0.7985176,-1.1292067,0.,0.,0.\PG=C02V [SGV(C4H4)
 ,X(H4)]\\@


 ALMOST ANYTHING IS EASIER TO GET INTO THAN OUT OF.

                         -- AGNES ALLEN'S LAW FROM
                PAUL DICKSON'S "THE OFFICIAL RULES"
 Job cpu time:       0 days  0 hours  0 minutes 42.3 seconds.
 File lengths (MBytes):  RWF=      5 Int=      0 D2E=      0 Chk=      1 Scr=      1
 Normal termination of Gaussian 09 at Sun Sep 18 08:51:37 2016.
