A_B_0                                                                   
SP        RB3LYP                                                      6-31+G(d)           
Number of atoms                            I               12
Info1-9                                    I   N=           9
          23          23           0           0           0         110
           1          18        -502
Charge                                     I                0
Multiplicity                               I                1
Number of electrons                        I               32
Number of alpha electrons                  I               16
Number of beta electrons                   I               16
Number of basis functions                  I               92
Number of independent functions            I               92
Number of point charges in /Mol/           I                0
Number of translation vectors              I                0
Atomic numbers                             I   N=          12
           6           6           1           1           1           1
           6           6           1           1           1           1
Nuclear charges                            R   N=          12
  6.00000000E+00  6.00000000E+00  1.00000000E+00  1.00000000E+00  1.00000000E+00
  1.00000000E+00  6.00000000E+00  6.00000000E+00  1.00000000E+00  1.00000000E+00
  1.00000000E+00  1.00000000E+00
Current cartesian coordinates              R   N=          36
  1.27131137E+00  0.00000000E+00  0.00000000E+00 -1.27131137E+00  0.00000000E+00
  0.00000000E+00  2.34821716E+00  1.76652733E+00  0.00000000E+00  2.34821716E+00
 -1.76652733E+00  0.00000000E+00 -2.34821716E+00  1.76652733E+00  0.00000000E+00
 -2.34821716E+00 -1.76652733E+00  0.00000000E+00  1.27131137E+00  0.00000000E+00
  9.44863066E+00 -1.27131137E+00  0.00000000E+00  9.44863066E+00  2.34821716E+00
  1.76652733E+00  9.44863066E+00  2.34821716E+00 -1.76652733E+00  9.44863066E+00
 -2.34821716E+00  1.76652733E+00  9.44863066E+00 -2.34821716E+00 -1.76652733E+00
  9.44863066E+00
Force Field                                I                0
Int Atom Types                             I   N=          12
           0           0           0           0           0           0
           0           0           0           0           0           0
MM charges                                 R   N=          12
  0.00000000E+00  0.00000000E+00  0.00000000E+00  0.00000000E+00  0.00000000E+00
  0.00000000E+00  0.00000000E+00  0.00000000E+00  0.00000000E+00  0.00000000E+00
  0.00000000E+00  0.00000000E+00
Integer atomic weights                     I   N=          12
          12          12           1           1           1           1
          12          12           1           1           1           1
Real atomic weights                        R   N=          12
  1.20000000E+01  1.20000000E+01  1.00782504E+00  1.00782504E+00  1.00782504E+00
  1.00782504E+00  1.20000000E+01  1.20000000E+01  1.00782504E+00  1.00782504E+00
  1.00782504E+00  1.00782504E+00
Atom fragment info                         I   N=          12
           0           0           0           0           0           0
           0           0           0           0           0           0
Atom residue num                           I   N=          12
           0           0           0           0           0           0
           0           0           0           0           0           0
Nuclear spins                              I   N=          12
           0           0           1           1           1           1
           0           0           1           1           1           1
Nuclear ZEff                               R   N=          12
 -3.60000000E+00 -3.60000000E+00 -1.00000000E+00 -1.00000000E+00 -1.00000000E+00
 -1.00000000E+00 -3.60000000E+00 -3.60000000E+00 -1.00000000E+00 -1.00000000E+00
 -1.00000000E+00 -1.00000000E+00
Nuclear ZNuc                               R   N=          12
  6.00000000E+00  6.00000000E+00  1.00000000E+00  1.00000000E+00  1.00000000E+00
  1.00000000E+00  6.00000000E+00  6.00000000E+00  1.00000000E+00  1.00000000E+00
  1.00000000E+00  1.00000000E+00
Nuclear QMom                               R   N=          12
  0.00000000E+00  0.00000000E+00  0.00000000E+00  0.00000000E+00  0.00000000E+00
  0.00000000E+00  0.00000000E+00  0.00000000E+00  0.00000000E+00  0.00000000E+00
  0.00000000E+00  0.00000000E+00
Nuclear GFac                               R   N=          12
  0.00000000E+00  0.00000000E+00  2.79284600E+00  2.79284600E+00  2.79284600E+00
  2.79284600E+00  0.00000000E+00  0.00000000E+00  2.79284600E+00  2.79284600E+00
  2.79284600E+00  2.79284600E+00
MicOpt                                     I   N=          12
          -1          -1          -1          -1          -1          -1
          -1          -1          -1          -1          -1          -1
Number of contracted shells                I               36
Number of primitive shells                 I               80
Pure/Cartesian d shells                    I                1
Pure/Cartesian f shells                    I                0
Highest angular momentum                   I                2
Largest degree of contraction              I                6
Shell types                                I   N=          36
           0          -1          -1          -1           2           0
          -1          -1          -1           2           0           0
           0           0           0           0           0           0
           0          -1          -1          -1           2           0
          -1          -1          -1           2           0           0
           0           0           0           0           0           0
Number of primitives per shell             I   N=          36
           6           3           1           1           1           6
           3           1           1           1           3           1
           3           1           3           1           3           1
           6           3           1           1           1           6
           3           1           1           1           3           1
           3           1           3           1           3           1
Shell to atom map                          I   N=          36
           1           1           1           1           1           2
           2           2           2           2           3           3
           4           4           5           5           6           6
           7           7           7           7           7           8
           8           8           8           8           9           9
          10          10          11          11          12          12
Primitive exponents                        R   N=          80
  3.04752488E+03  4.57369518E+02  1.03948685E+02  2.92101553E+01  9.28666296E+00
  3.16392696E+00  7.86827235E+00  1.88128854E+00  5.44249258E-01  1.68714478E-01
  4.38000000E-02  8.00000000E-01  3.04752488E+03  4.57369518E+02  1.03948685E+02
  2.92101553E+01  9.28666296E+00  3.16392696E+00  7.86827235E+00  1.88128854E+00
  5.44249258E-01  1.68714478E-01  4.38000000E-02  8.00000000E-01  1.87311370E+01
  2.82539436E+00  6.40121692E-01  1.61277759E-01  1.87311370E+01  2.82539436E+00
  6.40121692E-01  1.61277759E-01  1.87311370E+01  2.82539436E+00  6.40121692E-01
  1.61277759E-01  1.87311370E+01  2.82539436E+00  6.40121692E-01  1.61277759E-01
  3.04752488E+03  4.57369518E+02  1.03948685E+02  2.92101553E+01  9.28666296E+00
  3.16392696E+00  7.86827235E+00  1.88128854E+00  5.44249258E-01  1.68714478E-01
  4.38000000E-02  8.00000000E-01  3.04752488E+03  4.57369518E+02  1.03948685E+02
  2.92101553E+01  9.28666296E+00  3.16392696E+00  7.86827235E+00  1.88128854E+00
  5.44249258E-01  1.68714478E-01  4.38000000E-02  8.00000000E-01  1.87311370E+01
  2.82539436E+00  6.40121692E-01  1.61277759E-01  1.87311370E+01  2.82539436E+00
  6.40121692E-01  1.61277759E-01  1.87311370E+01  2.82539436E+00  6.40121692E-01
  1.61277759E-01  1.87311370E+01  2.82539436E+00  6.40121692E-01  1.61277759E-01
Contraction coefficients                   R   N=          80
  1.83473713E-03  1.40373228E-02  6.88426223E-02  2.32184443E-01  4.67941348E-01
  3.62311985E-01 -1.19332420E-01 -1.60854152E-01  1.14345644E+00  1.00000000E+00
  1.00000000E+00  1.00000000E+00  1.83473713E-03  1.40373228E-02  6.88426223E-02
  2.32184443E-01  4.67941348E-01  3.62311985E-01 -1.19332420E-01 -1.60854152E-01
  1.14345644E+00  1.00000000E+00  1.00000000E+00  1.00000000E+00  3.34946043E-02
  2.34726953E-01  8.13757326E-01  1.00000000E+00  3.34946043E-02  2.34726953E-01
  8.13757326E-01  1.00000000E+00  3.34946043E-02  2.34726953E-01  8.13757326E-01
  1.00000000E+00  3.34946043E-02  2.34726953E-01  8.13757326E-01  1.00000000E+00
  1.83473713E-03  1.40373228E-02  6.88426223E-02  2.32184443E-01  4.67941348E-01
  3.62311985E-01 -1.19332420E-01 -1.60854152E-01  1.14345644E+00  1.00000000E+00
  1.00000000E+00  1.00000000E+00  1.83473713E-03  1.40373228E-02  6.88426223E-02
  2.32184443E-01  4.67941348E-01  3.62311985E-01 -1.19332420E-01 -1.60854152E-01
  1.14345644E+00  1.00000000E+00  1.00000000E+00  1.00000000E+00  3.34946043E-02
  2.34726953E-01  8.13757326E-01  1.00000000E+00  3.34946043E-02  2.34726953E-01
  8.13757326E-01  1.00000000E+00  3.34946043E-02  2.34726953E-01  8.13757326E-01
  1.00000000E+00  3.34946043E-02  2.34726953E-01  8.13757326E-01  1.00000000E+00
P(S=P) Contraction coefficients            R   N=          80
  0.00000000E+00  0.00000000E+00  0.00000000E+00  0.00000000E+00  0.00000000E+00
  0.00000000E+00  6.89990666E-02  3.16423961E-01  7.44308291E-01  1.00000000E+00
  1.00000000E+00  0.00000000E+00  0.00000000E+00  0.00000000E+00  0.00000000E+00
  0.00000000E+00  0.00000000E+00  0.00000000E+00  6.89990666E-02  3.16423961E-01
  7.44308291E-01  1.00000000E+00  1.00000000E+00  0.00000000E+00  0.00000000E+00
  0.00000000E+00  0.00000000E+00  0.00000000E+00  0.00000000E+00  0.00000000E+00
  0.00000000E+00  0.00000000E+00  0.00000000E+00  0.00000000E+00  0.00000000E+00
  0.00000000E+00  0.00000000E+00  0.00000000E+00  0.00000000E+00  0.00000000E+00
  0.00000000E+00  0.00000000E+00  0.00000000E+00  0.00000000E+00  0.00000000E+00
  0.00000000E+00  6.89990666E-02  3.16423961E-01  7.44308291E-01  1.00000000E+00
  1.00000000E+00  0.00000000E+00  0.00000000E+00  0.00000000E+00  0.00000000E+00
  0.00000000E+00  0.00000000E+00  0.00000000E+00  6.89990666E-02  3.16423961E-01
  7.44308291E-01  1.00000000E+00  1.00000000E+00  0.00000000E+00  0.00000000E+00
  0.00000000E+00  0.00000000E+00  0.00000000E+00  0.00000000E+00  0.00000000E+00
  0.00000000E+00  0.00000000E+00  0.00000000E+00  0.00000000E+00  0.00000000E+00
  0.00000000E+00  0.00000000E+00  0.00000000E+00  0.00000000E+00  0.00000000E+00
Coordinates of each shell                  R   N=         108
  1.27131137E+00  0.00000000E+00  0.00000000E+00  1.27131137E+00  0.00000000E+00
  0.00000000E+00  1.27131137E+00  0.00000000E+00  0.00000000E+00  1.27131137E+00
  0.00000000E+00  0.00000000E+00  1.27131137E+00  0.00000000E+00  0.00000000E+00
 -1.27131137E+00  0.00000000E+00  0.00000000E+00 -1.27131137E+00  0.00000000E+00
  0.00000000E+00 -1.27131137E+00  0.00000000E+00  0.00000000E+00 -1.27131137E+00
  0.00000000E+00  0.00000000E+00 -1.27131137E+00  0.00000000E+00  0.00000000E+00
  2.34821716E+00  1.76652733E+00  0.00000000E+00  2.34821716E+00  1.76652733E+00
  0.00000000E+00  2.34821716E+00 -1.76652733E+00  0.00000000E+00  2.34821716E+00
 -1.76652733E+00  0.00000000E+00 -2.34821716E+00  1.76652733E+00  0.00000000E+00
 -2.34821716E+00  1.76652733E+00  0.00000000E+00 -2.34821716E+00 -1.76652733E+00
  0.00000000E+00 -2.34821716E+00 -1.76652733E+00  0.00000000E+00  1.27131137E+00
  0.00000000E+00  9.44863066E+00  1.27131137E+00  0.00000000E+00  9.44863066E+00
  1.27131137E+00  0.00000000E+00  9.44863066E+00  1.27131137E+00  0.00000000E+00
  9.44863066E+00  1.27131137E+00  0.00000000E+00  9.44863066E+00 -1.27131137E+00
  0.00000000E+00  9.44863066E+00 -1.27131137E+00  0.00000000E+00  9.44863066E+00
 -1.27131137E+00  0.00000000E+00  9.44863066E+00 -1.27131137E+00  0.00000000E+00
  9.44863066E+00 -1.27131137E+00  0.00000000E+00  9.44863066E+00  2.34821716E+00
  1.76652733E+00  9.44863066E+00  2.34821716E+00  1.76652733E+00  9.44863066E+00
  2.34821716E+00 -1.76652733E+00  9.44863066E+00  2.34821716E+00 -1.76652733E+00
  9.44863066E+00 -2.34821716E+00  1.76652733E+00  9.44863066E+00 -2.34821716E+00
  1.76652733E+00  9.44863066E+00 -2.34821716E+00 -1.76652733E+00  9.44863066E+00
 -2.34821716E+00 -1.76652733E+00  9.44863066E+00
Constraint Structure                       R   N=          36
  1.27131137E+00  0.00000000E+00  0.00000000E+00 -1.27131137E+00  0.00000000E+00
  0.00000000E+00  2.34821716E+00  1.76652733E+00  0.00000000E+00  2.34821716E+00
 -1.76652733E+00  0.00000000E+00 -2.34821716E+00  1.76652733E+00  0.00000000E+00
 -2.34821716E+00 -1.76652733E+00  0.00000000E+00  1.27131137E+00  0.00000000E+00
  9.44863066E+00 -1.27131137E+00  0.00000000E+00  9.44863066E+00  2.34821716E+00
  1.76652733E+00  9.44863066E+00  2.34821716E+00 -1.76652733E+00  9.44863066E+00
 -2.34821716E+00  1.76652733E+00  9.44863066E+00 -2.34821716E+00 -1.76652733E+00
  9.44863066E+00
Num ILSW                                   I              100
ILSW                                       I   N=         100
           0           1           0           0           2           0
           0           0           0           0         402          -1
           5           0           0           0           0           0
           0           0           1           0           0           0
           1           1           0           0           0           0
           0           0      100000           0          -1           0
           0           0           0           0           0           0
           0           0           0           1           0           0
           0           0           1           0           0           0
           0           0           4          41           0           0
           0           0           5           0           0           0
           0           0           0           0           0           0
           0           0           0           0           0           0
           0           0           0           0           0           0
           0           0           0           0           0           0
           0           0           0           0           0           0
           0           0           0           0
Num RLSW                                   I               41
RLSW                                       R   N=          41
  8.00000000E-01  7.20000000E-01  1.00000000E+00  8.10000000E-01  2.00000000E-01
  0.00000000E+00  0.00000000E+00  1.00000000E+00  0.00000000E+00  0.00000000E+00
  0.00000000E+00  0.00000000E+00  1.00000000E+00  0.00000000E+00  0.00000000E+00
  0.00000000E+00  0.00000000E+00  1.00000000E+00  0.00000000E+00  0.00000000E+00
  0.00000000E+00  0.00000000E+00  1.00000000E+00  0.00000000E+00  0.00000000E+00
  0.00000000E+00  0.00000000E+00  1.00000000E+00  0.00000000E+00  0.00000000E+00
  0.00000000E+00  0.00000000E+00  1.00000000E+00  0.00000000E+00  0.00000000E+00
  0.00000000E+00  0.00000000E+00  0.00000000E+00  1.00000000E+00  1.00000000E+00
  0.00000000E+00
MxBond                                     I                3
NBond                                      I   N=          12
           3           3           1           1           1           1
           3           3           1           1           1           1
IBond                                      I   N=          36
           2           3           4           1           5           6
           1           0           0           1           0           0
           2           0           0           2           0           0
           8           9          10           7          11          12
           7           0           0           7           0           0
           8           0           0           8           0           0
RBond                                      R   N=          36
  2.00000000E+00  1.00000000E+00  1.00000000E+00  2.00000000E+00  1.00000000E+00
  1.00000000E+00  1.00000000E+00  0.00000000E+00  0.00000000E+00  1.00000000E+00
  0.00000000E+00  0.00000000E+00  1.00000000E+00  0.00000000E+00  0.00000000E+00
  1.00000000E+00  0.00000000E+00  0.00000000E+00  2.00000000E+00  1.00000000E+00
  1.00000000E+00  2.00000000E+00  1.00000000E+00  1.00000000E+00  1.00000000E+00
  0.00000000E+00  0.00000000E+00  1.00000000E+00  0.00000000E+00  0.00000000E+00
  1.00000000E+00  0.00000000E+00  0.00000000E+00  1.00000000E+00  0.00000000E+00
  0.00000000E+00
Virial Ratio                               R      2.011867488426954E+00
SCF Energy                                 R     -1.571855756335842E+02
Total Energy                               R     -1.571855756335842E+02
RMS Density                                R      6.698345371981732E-09
External E-field                           R   N=          35
  0.00000000E+00  0.00000000E+00  0.00000000E+00  0.00000000E+00  0.00000000E+00
  0.00000000E+00  0.00000000E+00  0.00000000E+00  0.00000000E+00  0.00000000E+00
  0.00000000E+00  0.00000000E+00  0.00000000E+00  0.00000000E+00  0.00000000E+00
  0.00000000E+00  0.00000000E+00  0.00000000E+00  0.00000000E+00  0.00000000E+00
  0.00000000E+00  0.00000000E+00  0.00000000E+00  0.00000000E+00  0.00000000E+00
  0.00000000E+00  0.00000000E+00  0.00000000E+00  0.00000000E+00  0.00000000E+00
  0.00000000E+00  0.00000000E+00  0.00000000E+00  0.00000000E+00  0.00000000E+00
IOpCl                                      I                0
IROHF                                      I                0
Alpha Orbital Energies                     R   N=          92
 -1.01963118E+01 -1.01963118E+01 -1.01955051E+01 -1.01955047E+01 -7.59741236E-01
 -7.59600036E-01 -5.82329772E-01 -5.82175600E-01 -4.70530432E-01 -4.70361077E-01
 -4.20498773E-01 -4.20360533E-01 -3.61140868E-01 -3.60977585E-01 -2.75405257E-01
 -2.71266062E-01 -1.26202708E-02 -2.27632328E-03  1.73543521E-02  2.59687445E-02
  3.65991253E-02  4.03294191E-02  4.58540490E-02  5.92064937E-02  7.57463269E-02
  8.07452091E-02  8.21870533E-02  9.62308230E-02  9.97197697E-02  1.15306011E-01
  1.32185519E-01  1.52987178E-01  1.58032851E-01  1.69210573E-01  1.73225754E-01
  1.89690044E-01  1.98416121E-01  2.39197029E-01  2.71732992E-01  3.07918625E-01
  3.40876409E-01  3.47744075E-01  3.52086787E-01  3.66204667E-01  5.77967289E-01
  5.90779330E-01  6.58872615E-01  6.64273821E-01  6.83742477E-01  7.08278606E-01
  7.28655355E-01  7.33151012E-01  7.62761034E-01  7.78129373E-01  8.42004805E-01
  8.63248706E-01  8.97795648E-01  9.09638602E-01  9.32681330E-01  9.49396506E-01
  9.60737304E-01  9.98598422E-01  1.05209955E+00  1.08934579E+00  1.16822819E+00
  1.17221336E+00  1.22190663E+00  1.22213659E+00  1.45016426E+00  1.45170493E+00
  1.54149050E+00  1.54154963E+00  1.81895682E+00  1.81897441E+00  1.88782564E+00
  1.88811164E+00  2.00202759E+00  2.00259597E+00  2.11042715E+00  2.11138671E+00
  2.29676803E+00  2.29976530E+00  2.37265469E+00  2.37431730E+00  2.66711342E+00
  2.66760408E+00  2.70134650E+00  2.71007005E+00  4.11687302E+00  4.12372961E+00
  4.25296106E+00  4.25557420E+00
Alpha MO coefficients                      R   N=        8464
 -4.96055440E-01 -2.44143480E-02 -1.11668767E-04  9.38860583E-16 -9.53989428E-06
  4.40137241E-03  1.07601925E-04 -5.62113644E-15  5.66271511E-05 -7.56251443E-04
  6.55764377E-04 -1.45731877E-15 -2.00736212E-04  4.70807776E-03  4.71870365E-03
  4.87499267E-03 -1.33937342E-17  3.58887912E-06 -2.03192019E-16 -4.96055442E-01
 -2.44143482E-02  1.11668765E-04 -2.52367443E-17 -9.53989423E-06  4.40137246E-03
 -1.07601916E-04  3.59381126E-15  5.66271509E-05 -7.56251524E-04 -6.55764399E-04
  1.14671850E-15 -2.00736212E-04  4.70807779E-03  4.71870367E-03  4.87499269E-03
 -1.88291782E-16 -3.58887914E-06 -6.88486433E-17  1.12830860E-04 -4.85007242E-04
  1.12830860E-04 -4.85007242E-04  1.12830861E-04 -4.85007246E-04  1.12830861E-04
 -4.85007246E-04  4.96515300E-01  2.44369675E-02  1.11784435E-04  3.56028887E-16
 -9.55614180E-06 -4.40550099E-03 -1.07795139E-04  1.04007966E-15  5.66637060E-05
  7.56621074E-04 -6.56237850E-04  9.39185317E-16 -2.00738672E-04 -4.71244015E-03
 -4.72308136E-03 -4.87950452E-03  1.55231172E-16  3.58991723E-06 -3.60872197E-16
  4.96515303E-01  2.44369676E-02 -1.11784434E-04  2.72389172E-16 -9.55614175E-06
 -4.40550104E-03  1.07795129E-04 -1.53166014E-15  5.66637059E-05  7.56621159E-04
  6.56237873E-04 -9.56217504E-16 -2.00738672E-04 -4.71244018E-03 -4.72308139E-03
 -4.87950455E-03 -3.46774527E-16 -3.58991724E-06  1.18897839E-18 -1.12960073E-04
  4.85684475E-04 -1.12960073E-04  4.85684475E-04 -1.12960073E-04  4.85684480E-04
 -1.12960073E-04  4.85684480E-04  4.96513792E-01  2.44223459E-02  1.24881692E-04
 -8.03816327E-16  1.75388424E-05 -4.45763343E-03 -2.08567086E-04  3.97858477E-15
 -3.94765947E-05  3.99260489E-04 -5.11279293E-04  3.41631258E-15  2.74877089E-06
 -4.71010005E-03 -4.72664447E-03 -4.87148569E-03 -1.87629553E-16 -1.12198719E-06
 -2.96347180E-16  4.96513794E-01  2.44223461E-02 -1.24881690E-04  2.96523356E-16
  1.75388425E-05 -4.45763348E-03  2.08567077E-04 -4.33541040E-15 -3.94765949E-05
  3.99260561E-04  5.11279313E-04 -4.00392377E-15  2.74877105E-06 -4.71010007E-03
 -4.72664450E-03 -4.87148572E-03 -3.93396905E-16  1.12198717E-06  8.34885721E-17
 -1.39499232E-04  7.31098831E-04 -1.39499232E-04  7.31098831E-04 -1.39499233E-04
  7.31098836E-04 -1.39499233E-04  7.31098836E-04  4.96053930E-01  2.43997129E-02
  1.24778165E-04  4.80637695E-16 -1.75299952E-05 -4.45355317E-03 -2.08467292E-04
 -3.38090695E-15  3.94241066E-05  3.98559566E-04 -5.10671437E-04 -2.36262439E-15
 -2.56276614E-06 -4.70573548E-03 -4.72227006E-03 -4.86696640E-03  1.22215123E-16
  1.11866123E-06 -9.60907271E-17  4.96053933E-01  2.43997131E-02 -1.24778164E-04
 -2.59553946E-16 -1.75299952E-05 -4.45355322E-03  2.08467283E-04  3.98308808E-15
  3.94241068E-05  3.98559645E-04  5.10671458E-04  2.47470456E-15 -2.56276631E-06
 -4.70573551E-03 -4.72227008E-03 -4.86696643E-03 -5.62074183E-17 -1.11866121E-06
  2.25741924E-16 -1.39394622E-04  7.30649106E-04 -1.39394622E-04  7.30649106E-04
 -1.39394623E-04  7.30649111E-04 -1.39394623E-04  7.30649111E-04  4.96497357E-01
  2.48931665E-02 -2.28975046E-04  2.43072609E-16  7.46351279E-06 -9.18133463E-03
  1.66796344E-03 -1.89857975E-15 -4.00275209E-05  1.33382014E-02 -3.59125023E-03
 -7.69181679E-16  2.84446180E-05 -4.40864277E-03 -4.59923896E-03 -4.77319970E-03
  5.11722226E-16  3.35329952E-06  5.22283775E-16 -4.96497354E-01 -2.48931664E-02
 -2.28975047E-04  9.43553068E-17 -7.46351269E-06  9.18133461E-03  1.66796344E-03
  1.93557998E-15  4.00275207E-05 -1.33382014E-02 -3.59125023E-03  5.13824969E-16
 -2.84446180E-05  4.40864274E-03  4.59923893E-03  4.77319967E-03 -5.93780058E-16
  3.35329953E-06  7.86043950E-16 -6.69685039E-05  8.16972693E-04 -6.69685039E-05
  8.16972693E-04  6.69685031E-05 -8.16972689E-04  6.69685032E-05 -8.16972689E-04
  4.96498960E-01  2.48932469E-02 -2.28975790E-04  4.40818084E-16 -7.46348174E-06
 -9.18136413E-03  1.66796878E-03 -2.80616762E-15  4.00274150E-05  1.33382493E-02
 -3.59126310E-03 -3.54228514E-16 -2.84446485E-05 -4.40865703E-03 -4.59925382E-03
 -4.77321514E-03 -1.10575943E-16 -3.35329103E-06  4.15426237E-16 -4.96498957E-01
 -2.48932468E-02 -2.28975790E-04 -5.93405746E-16  7.46348164E-06  9.18136410E-03
  1.66796878E-03  2.72834318E-15 -4.00274148E-05 -1.33382493E-02 -3.59126310E-03
  8.53597471E-16  2.84446484E-05  4.40865700E-03  4.59925380E-03  4.77321511E-03
  5.07894135E-16 -3.35329103E-06  8.90492254E-16 -6.69687474E-05  8.16975326E-04
 -6.69687474E-05  8.16975326E-04  6.69687466E-05 -8.16975321E-04  6.69687466E-05
 -8.16975321E-04  4.96496600E-01  2.48853390E-02 -2.30137023E-04  2.04823125E-16
 -9.61166186E-06 -9.13240484E-03  1.65229594E-03 -2.94032408E-15  3.27776336E-05
  1.48026823E-02 -3.98439825E-03 -3.76783034E-15  9.40960623E-06 -4.41422968E-03
 -4.60240096E-03 -4.77911292E-03  9.61991766E-17 -2.62975531E-06  1.56404583E-16
 -4.96496597E-01 -2.48853389E-02 -2.30137024E-04 -1.44681961E-16  9.61166191E-06
  9.13240482E-03  1.65229594E-03  2.90957051E-15 -3.27776339E-05 -1.48026823E-02
 -3.98439825E-03  3.89143830E-15 -9.40960509E-06  4.41422965E-03  4.60240093E-03
  4.77911289E-03  1.73201547E-16 -2.62975529E-06 -3.13025624E-16 -7.53894930E-05
  8.14957018E-04 -7.53894930E-05  8.14957018E-04  7.53894924E-05 -8.14957015E-04
  7.53894924E-05 -8.14957015E-04 -4.96494996E-01 -2.48852586E-02  2.30136283E-04
 -5.38787461E-16 -9.61168596E-06  9.13237519E-03 -1.65229055E-03  5.08112286E-15
  3.27777628E-05 -1.48026392E-02  3.98438665E-03  2.47620632E-15  9.40951435E-06
  4.41421544E-03  4.60238610E-03  4.77909750E-03  2.54075399E-16 -2.62976614E-06
  5.29171464E-16  4.96494993E-01  2.48852584E-02  2.30136284E-04  7.71282274E-16
  9.61168602E-06 -9.13237516E-03 -1.65229055E-03 -5.89827019E-15 -3.27777632E-05
  1.48026392E-02  3.98438665E-03 -2.84611085E-15 -9.40951320E-06 -4.41421541E-03
 -4.60238608E-03 -4.77909747E-03  2.00761374E-16 -2.62976612E-06 -5.14400082E-16
  7.53892767E-05 -8.14954379E-04  7.53892767E-05 -8.14954379E-04 -7.53892760E-05
  8.14954376E-04 -7.53892760E-05  8.14954376E-04 -1.12787797E-01  2.20045887E-01
 -7.11705898E-02 -5.84373364E-15 -1.63412988E-04  1.65289647E-01 -3.08697153E-03
 -4.25038626E-14 -2.34880045E-06  2.38393606E-03 -4.31767211E-04 -4.01283173E-14
 -1.46664062E-04  5.73607065E-03  1.73613007E-04 -1.17399797E-02 -9.76781577E-16
  1.59026852E-05  3.55905337E-17 -1.12787797E-01  2.20045887E-01  7.11705898E-02
 -1.03433408E-14 -1.63412988E-04  1.65289647E-01  3.08697153E-03  3.08367778E-14
 -2.34880042E-06  2.38393605E-03  4.31767208E-04  1.79509831E-14 -1.46664062E-04
  5.73607065E-03  1.73613007E-04 -1.17399797E-02  3.11009905E-16 -1.59026852E-05
 -3.80274757E-16  5.93945619E-02  1.07632717E-02  5.93945619E-02  1.07632717E-02
  5.93945619E-02  1.07632717E-02  5.93945619E-02  1.07632717E-02 -1.12787798E-01
  2.20045889E-01 -7.11705902E-02  2.47875712E-15  1.63412989E-04  1.65289648E-01
 -3.08697155E-03  1.35788387E-14  2.34880264E-06  2.38393607E-03 -4.31767214E-04
  1.38123761E-14  1.46664061E-04  5.73607068E-03  1.73613008E-04 -1.17399798E-02
 -6.98097375E-16 -1.59026853E-05 -3.55246810E-16 -1.12787798E-01  2.20045889E-01
  7.11705902E-02  5.91034457E-15  1.63412989E-04  1.65289648E-01  3.08697155E-03
 -2.39489277E-14  2.34880264E-06  2.38393607E-03  4.31767214E-04 -1.63057802E-14
  1.46664061E-04  5.73607068E-03  1.73613008E-04 -1.17399798E-02  9.94695043E-17
  1.59026853E-05 -6.66022275E-16  5.93945623E-02  1.07632718E-02  5.93945623E-02
  1.07632718E-02  5.93945623E-02  1.07632718E-02  5.93945623E-02  1.07632718E-02
 -1.12805290E-01  2.20257892E-01 -7.12557485E-02 -6.12012894E-15 -1.05951207E-04
  1.65049270E-01 -3.01058668E-03 -3.70361845E-14 -4.18213243E-04  2.47211008E-03
 -8.02020654E-04 -3.80198480E-14  1.90454660E-04  5.76774296E-03  2.17304830E-04
 -1.17036941E-02 -6.85608532E-16  9.14815361E-06  2.48109772E-16 -1.12805290E-01
  2.20257892E-01  7.12557485E-02 -1.06257955E-14 -1.05951207E-04  1.65049270E-01
  3.01058668E-03  2.79030815E-14 -4.18213243E-04  2.47211007E-03  8.02020650E-04
  1.75894820E-14  1.90454659E-04  5.76774296E-03  2.17304830E-04 -1.17036941E-02
  4.75198809E-16 -9.14815361E-06  2.49319787E-16  5.94325635E-02  1.07606205E-02
  5.94325635E-02  1.07606205E-02  5.94325635E-02  1.07606205E-02  5.94325635E-02
  1.07606205E-02  1.12805290E-01 -2.20257891E-01  7.12557481E-02 -1.34028712E-15
 -1.05951206E-04 -1.65049269E-01  3.01058666E-03 -1.89277631E-14 -4.18213243E-04
 -2.47211007E-03  8.02020650E-04 -6.47037127E-15  1.90454660E-04 -5.76774293E-03
 -2.17304829E-04  1.17036940E-02  4.72590958E-16  9.14815352E-06 -8.26412341E-17
  1.12805290E-01 -2.20257891E-01 -7.12557481E-02 -6.46423294E-15 -1.05951206E-04
 -1.65049269E-01 -3.01058666E-03  2.88839064E-14 -4.18213243E-04 -2.47211006E-03
 -8.02020649E-04  1.59607218E-14  1.90454660E-04 -5.76774293E-03 -2.17304829E-04
  1.17036940E-02 -5.36814012E-16 -9.14815352E-06  2.88035768E-17 -5.94325632E-02
 -1.07606205E-02 -5.94325632E-02 -1.07606205E-02 -5.94325632E-02 -1.07606205E-02
 -5.94325632E-02 -1.07606205E-02 -8.75135922E-02  1.76374544E-01  1.20496328E-01
 -6.13264324E-15 -1.13803989E-04  1.76309123E-01  4.43640564E-02 -1.16550541E-13
 -8.33122524E-05 -2.35126875E-02  1.21266616E-02 -2.43438212E-13 -4.97276181E-04
 -5.95308578E-03  9.63715968E-03 -8.16440422E-03 -1.95971156E-15 -1.77099241E-05
 -1.87734367E-17  8.75135922E-02 -1.76374544E-01  1.20496328E-01  2.72994865E-15
  1.13803989E-04 -1.76309123E-01  4.43640564E-02  1.01061807E-13  8.33122524E-05
  2.35126875E-02  1.21266616E-02  2.13851677E-13  4.97276181E-04  5.95308578E-03
 -9.63715968E-03  8.16440422E-03 -7.61885886E-16 -1.77099241E-05 -3.64270592E-17
  1.02989730E-01  4.16508131E-02  1.02989730E-01  4.16508131E-02 -1.02989730E-01
 -4.16508131E-02 -1.02989730E-01 -4.16508131E-02 -8.75135925E-02  1.76374544E-01
  1.20496329E-01 -1.00340660E-15  1.13803989E-04  1.76309124E-01  4.43640566E-02
  3.05872702E-14  8.33122550E-05 -2.35126877E-02  1.21266616E-02  6.22836438E-14
  4.97276176E-04 -5.95308580E-03  9.63715971E-03 -8.16440425E-03  1.30146024E-15
  1.77099241E-05  8.73006775E-17  8.75135925E-02 -1.76374544E-01  1.20496329E-01
 -9.23042509E-15 -1.13803989E-04 -1.76309124E-01  4.43640566E-02  1.33887111E-15
 -8.33122550E-05  2.35126877E-02  1.21266616E-02 -4.49973521E-14 -4.97276176E-04
  5.95308580E-03 -9.63715971E-03  8.16440425E-03 -2.30005671E-17  1.77099241E-05
  1.33089870E-17  1.02989731E-01  4.16508132E-02  1.02989731E-01  4.16508132E-02
 -1.02989731E-01 -4.16508132E-02 -1.02989731E-01 -4.16508132E-02 -8.75403952E-02