 Entering Gaussian System, Link 0=g09
 Input=A_B_45.gjf
 Output=A_B_45.log
 Initial command:
 /opt/share/GAUSSIAN/v09-D.01.app/g09/l1.exe "/tmp/Gau-13651.inp" -scrdir="/tmp/"
 Entering Link 1 = /opt/share/GAUSSIAN/v09-D.01.app/g09/l1.exe PID=     13652.
  
 Copyright (c) 1988,1990,1992,1993,1995,1998,2003,2009,2013,
            Gaussian, Inc.  All Rights Reserved.
  
 This is part of the Gaussian(R) 09 program.  It is based on
 the Gaussian(R) 03 system (copyright 2003, Gaussian, Inc.),
 the Gaussian(R) 98 system (copyright 1998, Gaussian, Inc.),
 the Gaussian(R) 94 system (copyright 1995, Gaussian, Inc.),
 the Gaussian 92(TM) system (copyright 1992, Gaussian, Inc.),
 the Gaussian 90(TM) system (copyright 1990, Gaussian, Inc.),
 the Gaussian 88(TM) system (copyright 1988, Gaussian, Inc.),
 the Gaussian 86(TM) system (copyright 1986, Carnegie Mellon
 University), and the Gaussian 82(TM) system (copyright 1983,
 Carnegie Mellon University). Gaussian is a federally registered
 trademark of Gaussian, Inc.
  
 This software contains proprietary and confidential information,
 including trade secrets, belonging to Gaussian, Inc.
  
 This software is provided under written license and may be
 used, copied, transmitted, or stored only in accord with that
 written license.
  
 The following legend is applicable only to US Government
 contracts under FAR:
  
                    RESTRICTED RIGHTS LEGEND
  
 Use, reproduction and disclosure by the US Government is
 subject to restrictions as set forth in subparagraphs (a)
 and (c) of the Commercial Computer Software - Restricted
 Rights clause in FAR 52.227-19.
  
 Gaussian, Inc.
 340 Quinnipiac St., Bldg. 40, Wallingford CT 06492
  
  
 ---------------------------------------------------------------
 Warning -- This program may not be used in any manner that
 competes with the business of Gaussian, Inc. or will provide
 assistance to any competitor of Gaussian, Inc.  The licensee
 of this program is prohibited from giving any competitor of
 Gaussian, Inc. access to this program.  By using this program,
 the user acknowledges that Gaussian, Inc. is engaged in the
 business of creating and licensing software in the field of
 computational chemistry and represents and warrants to the
 licensee that it is not a competitor of Gaussian, Inc. and that
 it will not use this program in any manner prohibited above.
 ---------------------------------------------------------------
  

 Cite this work as:
 Gaussian 09, Revision D.01,
 M. J. Frisch, G. W. Trucks, H. B. Schlegel, G. E. Scuseria, 
 M. A. Robb, J. R. Cheeseman, G. Scalmani, V. Barone, B. Mennucci, 
 G. A. Petersson, H. Nakatsuji, M. Caricato, X. Li, H. P. Hratchian, 
 A. F. Izmaylov, J. Bloino, G. Zheng, J. L. Sonnenberg, M. Hada, 
 M. Ehara, K. Toyota, R. Fukuda, J. Hasegawa, M. Ishida, T. Nakajima, 
 Y. Honda, O. Kitao, H. Nakai, T. Vreven, J. A. Montgomery, Jr., 
 J. E. Peralta, F. Ogliaro, M. Bearpark, J. J. Heyd, E. Brothers, 
 K. N. Kudin, V. N. Staroverov, T. Keith, R. Kobayashi, J. Normand, 
 K. Raghavachari, A. Rendell, J. C. Burant, S. S. Iyengar, J. Tomasi, 
 M. Cossi, N. Rega, J. M. Millam, M. Klene, J. E. Knox, J. B. Cross, 
 V. Bakken, C. Adamo, J. Jaramillo, R. Gomperts, R. E. Stratmann, 
 O. Yazyev, A. J. Austin, R. Cammi, C. Pomelli, J. W. Ochterski, 
 R. L. Martin, K. Morokuma, V. G. Zakrzewski, G. A. Voth, 
 P. Salvador, J. J. Dannenberg, S. Dapprich, A. D. Daniels, 
 O. Farkas, J. B. Foresman, J. V. Ortiz, J. Cioslowski, 
 and D. J. Fox, Gaussian, Inc., Wallingford CT, 2013.
 
 ******************************************
 Gaussian 09:  ES64L-G09RevD.01 24-Apr-2013
                18-Sep-2016 
 ******************************************
 % mem=4GB
 % nprocshared=4
 Will use up to    4 processors via shared memory.
 % chk=A_B_45.chk
 ------------------------------------------------
 # B3LYP/6-31+G* int=ultrafine nosymm pop=nboread
 ------------------------------------------------
 1/38=1/1;
 2/12=2,15=1,17=6,18=5,40=1/2;
 3/5=1,6=6,7=11,11=2,16=1,25=1,30=1,74=-5,75=-5/1,2,3;
 4//1;
 5/5=2,38=5/2;
 6/7=2,8=2,9=2,10=2,28=1,40=2/1,7;
 99/5=1,9=1/99;
 ------
 A_B_45
 ------
 Symbolic Z-matrix:
 Charge =  0 Multiplicity = 1
 C                     0.67275   0.        0. 
 C                    -0.67275   0.        0. 
 H                     1.24262   0.93481   0. 
 H                     1.24262  -0.93481   0. 
 H                    -1.24262   0.93481   0. 
 H                    -1.24262  -0.93481   0. 
 C                     0.67275   0.        5. 
 C                    -0.67275   0.        5. 
 H                     1.24262   0.66101   4.33899 
 H                     1.24262  -0.66101   5.66101 
 H                    -1.24262   0.66101   4.33899 
 H                    -1.24262  -0.66101   5.66101 
 
                          Input orientation:                          
 ---------------------------------------------------------------------
 Center     Atomic      Atomic             Coordinates (Angstroms)
 Number     Number       Type             X           Y           Z
 ---------------------------------------------------------------------
      1          6           0        0.672749    0.000000    0.000000
      2          6           0       -0.672749    0.000000    0.000000
      3          1           0        1.242623    0.934806    0.000000
      4          1           0        1.242623   -0.934806    0.000000
      5          1           0       -1.242623    0.934806    0.000000
      6          1           0       -1.242623   -0.934806    0.000000
      7          6           0        0.672749    0.000000    5.000000
      8          6           0       -0.672749    0.000000    5.000000
      9          1           0        1.242623    0.661008    4.338992
     10          1           0        1.242623   -0.661008    5.661008
     11          1           0       -1.242623    0.661008    4.338992
     12          1           0       -1.242623   -0.661008    5.661008
 ---------------------------------------------------------------------
                    Distance matrix (angstroms):
                    1          2          3          4          5
     1  C    0.000000
     2  C    1.345498   0.000000
     3  H    1.094814   2.131317   0.000000
     4  H    1.094814   2.131317   1.869612   0.000000
     5  H    2.131317   1.094814   2.485246   3.109967   0.000000
     6  H    2.131317   1.094814   3.109967   2.485246   1.869612
     7  C    5.000000   5.177873   5.118459   5.118459   5.435302
     8  C    5.177873   5.000000   5.435302   5.435302   5.118459
     9  H    4.425894   4.788782   4.347622   4.623145   5.007820
    10  H    5.727888   6.012703   5.881635   5.667625   6.385145
    11  H    4.788782   4.425894   5.007820   5.248802   4.347622
    12  H    6.012703   5.727888   6.385145   6.188572   5.881635
                    6          7          8          9         10
     6  H    0.000000
     7  C    5.435302   0.000000
     8  C    5.118459   1.345498   0.000000
     9  H    5.248802   1.094815   2.131317   0.000000
    10  H    6.188572   1.094815   2.131317   1.869613   0.000000
    11  H    4.623145   2.131317   1.094815   2.485246   3.109968
    12  H    5.667625   2.131317   1.094815   3.109968   2.485246
                   11         12
    11  H    0.000000
    12  H    1.869613   0.000000
 Symmetry turned off by external request.
 Stoichiometry    C4H8
 Framework group  CS[X(C4H8)]
 Deg. of freedom    15
 Full point group                 CS      NOp   2
 Rotational constants (GHZ):     12.8108826      1.4138973      1.3081349
 Standard basis: 6-31+G(d) (6D, 7F)
    92 basis functions,   160 primitive gaussians,    92 cartesian basis functions
    16 alpha electrons       16 beta electrons
       nuclear repulsion energy        92.4109664506 Hartrees.
 NAtoms=   12 NActive=   12 NUniq=   12 SFac= 1.00D+00 NAtFMM=   60 NAOKFM=F Big=F
 Integral buffers will be    131072 words long.
 Raffenetti 2 integral format.
 Two-electron integral symmetry is turned off.
 One-electron integrals computed using PRISM.
 NBasis=    92 RedAO= T EigKep=  1.59D-04  NBF=    92
 NBsUse=    92 1.00D-06 EigRej= -1.00D+00 NBFU=    92
 ExpMin= 4.38D-02 ExpMax= 3.05D+03 ExpMxC= 4.57D+02 IAcc=3 IRadAn=         5 AccDes= 0.00D+00
 Harris functional with IExCor=  402 and IRadAn=       5 diagonalized for initial guess.
 HarFok:  IExCor=  402 AccDes= 0.00D+00 IRadAn=         5 IDoV= 1 UseB2=F ITyADJ=14
 ICtDFT=  3500011 ScaDFX=  1.000000  1.000000  1.000000  1.000000
 FoFCou: FMM=F IPFlag=           0 FMFlag=      100000 FMFlg1=           0
         NFxFlg=           0 DoJE=T BraDBF=F KetDBF=T FulRan=T
         wScrn=  0.000000 ICntrl=     500 IOpCl=  0 I1Cent=   200000004 NGrid=           0
         NMat0=    1 NMatS0=      1 NMatT0=    0 NMatD0=    1 NMtDS0=    0 NMtDT0=    0
 Symmetry not used in FoFCou.
 Keep R1 ints in memory in canonical form, NReq=10115209.
 Requested convergence on RMS density matrix=1.00D-08 within 128 cycles.
 Requested convergence on MAX density matrix=1.00D-06.
 Requested convergence on             energy=1.00D-06.
 No special actions if energy rises.
 SCF Done:  E(RB3LYP) =  -157.185784409     A.U. after    9 cycles
            NFock=  9  Conv=0.39D-08     -V/T= 2.0119

 **********************************************************************

            Population analysis using the SCF density.

 **********************************************************************

 Alpha  occ. eigenvalues --  -10.19813 -10.19732 -10.19610 -10.19529  -0.76153
 Alpha  occ. eigenvalues --   -0.75944  -0.58401  -0.58199  -0.47219  -0.47008
 Alpha  occ. eigenvalues --   -0.42221  -0.42019  -0.36275  -0.36069  -0.27617
 Alpha  occ. eigenvalues --   -0.27249
 Alpha virt. eigenvalues --   -0.01264  -0.00452   0.01522   0.02462   0.03401
 Alpha virt. eigenvalues --    0.04206   0.04455   0.06044   0.07555   0.07961
 Alpha virt. eigenvalues --    0.08324   0.09500   0.10145   0.12087   0.13200
 Alpha virt. eigenvalues --    0.14932   0.15505   0.17357   0.17595   0.19405
 Alpha virt. eigenvalues --    0.19896   0.22490   0.24702   0.27365   0.34513
 Alpha virt. eigenvalues --    0.34739   0.34834   0.36707   0.57808   0.58699
 Alpha virt. eigenvalues --    0.65836   0.66407   0.67895   0.70533   0.72498
 Alpha virt. eigenvalues --    0.73070   0.75907   0.78192   0.83413   0.86595
 Alpha virt. eigenvalues --    0.90051   0.91289   0.93673   0.94442   0.97101
 Alpha virt. eigenvalues --    0.99559   1.01282   1.03444   1.16573   1.17098
 Alpha virt. eigenvalues --    1.22028   1.22517   1.44870   1.45070   1.53961
 Alpha virt. eigenvalues --    1.54422   1.81708   1.81974   1.88604   1.88895
 Alpha virt. eigenvalues --    2.00069   2.00555   2.10895   2.11134   2.29511
 Alpha virt. eigenvalues --    2.29805   2.37137   2.37340   2.66556   2.66816
 Alpha virt. eigenvalues --    2.70030   2.70901   4.11827   4.13132   4.25195
 Alpha virt. eigenvalues --    4.25868
          Condensed to atoms (all electrons):
               1          2          3          4          5          6
     1  C    5.013378   0.664706   0.384044   0.381522  -0.038419  -0.035302
     2  C    0.664706   5.013378  -0.038419  -0.035302   0.384044   0.381522
     3  H    0.384044  -0.038419   0.508570  -0.033241  -0.006674   0.003953
     4  H    0.381522  -0.035302  -0.033241   0.505853   0.003953  -0.006642
     5  H   -0.038419   0.384044  -0.006674   0.003953   0.508570  -0.033241
     6  H   -0.035302   0.381522   0.003953  -0.006642  -0.033241   0.505853
     7  C   -0.001433  -0.001646  -0.000079   0.000014   0.000083   0.000036
     8  C   -0.001646  -0.001433   0.000083   0.000036  -0.000079   0.000014
     9  H    0.000765  -0.000545  -0.000002  -0.000002   0.000000   0.000000
    10  H    0.000018   0.000048   0.000000   0.000000   0.000000   0.000000
    11  H   -0.000545   0.000765   0.000000   0.000000  -0.000002  -0.000002
    12  H    0.000048   0.000018   0.000000   0.000000   0.000000   0.000000
               7          8          9         10         11         12
     1  C   -0.001433  -0.001646   0.000765   0.000018  -0.000545   0.000048
     2  C   -0.001646  -0.001433  -0.000545   0.000048   0.000765   0.000018
     3  H   -0.000079   0.000083  -0.000002   0.000000   0.000000   0.000000
     4  H    0.000014   0.000036  -0.000002   0.000000   0.000000   0.000000
     5  H    0.000083  -0.000079   0.000000   0.000000  -0.000002   0.000000
     6  H    0.000036   0.000014   0.000000   0.000000  -0.000002   0.000000
     7  C    4.998275   0.674978   0.378803   0.383627  -0.032057  -0.038003
     8  C    0.674978   4.998275  -0.032057  -0.038003   0.378803   0.383627
     9  H    0.378803  -0.032057   0.506615  -0.033327  -0.006700   0.003957
    10  H    0.383627  -0.038003  -0.033327   0.508772   0.003957  -0.006756
    11  H   -0.032057   0.378803  -0.006700   0.003957   0.506615  -0.033327
    12  H   -0.038003   0.383627   0.003957  -0.006756  -0.033327   0.508772
 Mulliken charges:
               1
     1  C   -0.367135
     2  C   -0.367135
     3  H    0.181765
     4  H    0.183810
     5  H    0.181765
     6  H    0.183810
     7  C   -0.362596
     8  C   -0.362596
     9  H    0.182493
    10  H    0.181664
    11  H    0.182493
    12  H    0.181664
 Sum of Mulliken charges =   0.00000
 Mulliken charges with hydrogens summed into heavy atoms:
               1
     1  C   -0.001561
     2  C   -0.001561
     7  C    0.001561
     8  C    0.001561
 Electronic spatial extent (au):  <R**2>=           1597.5635
 Charge=              0.0000 electrons
 Dipole moment (field-independent basis, Debye):
    X=              0.0000    Y=             -0.0176    Z=             -0.0176  Tot=              0.0249
 Quadrupole moment (field-independent basis, Debye-Ang):
   XX=            -24.8975   YY=            -26.6930   ZZ=            -30.8198
   XY=              0.0000   XZ=              0.0000   YZ=             -1.8504
 Traceless Quadrupole moment (field-independent basis, Debye-Ang):
   XX=              2.5726   YY=              0.7771   ZZ=             -3.3497
   XY=              0.0000   XZ=              0.0000   YZ=             -1.8504
 Octapole moment (field-independent basis, Debye-Ang**2):
  XXX=              0.0000  YYY=             -0.0514  ZZZ=           -217.2022  XYY=              0.0000
  XXY=             -0.0259  XXZ=            -62.2763  XZZ=              0.0000  YZZ=            -18.5396
  YYZ=            -71.4038  XYZ=              0.0000
 Hexadecapole moment (field-independent basis, Debye-Ang**3):
 XXXX=           -143.9652 YYYY=            -55.3792 ZZZZ=          -2213.6349 XXXY=              0.0000
 XXXZ=              0.0000 YYYX=              0.0000 YYYZ=              1.5186 ZZZX=              0.0000
 ZZZY=           -137.7628 XXYY=            -29.8285 XXZZ=           -344.2925 YYZZ=           -374.8211
 XXYZ=             -1.2333 YYXZ=              0.0000 ZZXY=              0.0000
 N-N= 9.241096645063D+01 E-N=-5.472007127669D+02  KE= 1.553427178782D+02
 ******************************Gaussian NBO Version 3.1******************************
             N A T U R A L   A T O M I C   O R B I T A L   A N D
          N A T U R A L   B O N D   O R B I T A L   A N A L Y S I S
 ******************************Gaussian NBO Version 3.1******************************

       /RESON  / : Allow strongly delocalized NBO set
       /FAO    / : Write the AO Fock matrix to LFN 44
       /SAO    / : Write the AO overlap matrix to LFN 43

 Analyzing the SCF density

 Job title: A_B_45                                                          

 Storage needed:     25928 in NPA,     34295 in NBO ( 536870096 available)


 NATURAL POPULATIONS:  Natural atomic orbital occupancies 
                                                          
   NAO  Atom  No  lang   Type(AO)    Occupancy      Energy
 ----------------------------------------------------------
     1    C    1  S      Cor( 1S)     1.99926     -10.06497
     2    C    1  S      Val( 2S)     1.08298      -0.25158
     3    C    1  S      Ryd( 4S)     0.00146       0.85705
     4    C    1  S      Ryd( 3S)     0.00023       0.61147
     5    C    1  S      Ryd( 5S)     0.00000       3.93623
     6    C    1  px     Val( 2p)     1.13210      -0.05572
     7    C    1  px     Ryd( 4p)     0.00375       0.41798
     8    C    1  px     Ryd( 3p)     0.00009       0.34483
     9    C    1  py     Val( 2p)     1.21757      -0.05335
    10    C    1  py     Ryd( 4p)     0.00333       0.82818
    11    C    1  py     Ryd( 3p)     0.00030       0.36226
    12    C    1  pz     Val( 2p)     0.99627      -0.11813
    13    C    1  pz     Ryd( 4p)     0.00272       0.43868
    14    C    1  pz     Ryd( 3p)     0.00027       0.38714
    15    C    1  dxy    Ryd( 3d)     0.00104       2.24609
    16    C    1  dxz    Ryd( 3d)     0.00063       1.90272
    17    C    1  dyz    Ryd( 3d)     0.00000       1.67831
    18    C    1  dx2y2  Ryd( 3d)     0.00059       2.29580
    19    C    1  dz2    Ryd( 3d)     0.00057       2.10538

    20    C    2  S      Cor( 1S)     1.99926     -10.06497
    21    C    2  S      Val( 2S)     1.08298      -0.25158
    22    C    2  S      Ryd( 4S)     0.00146       0.85705
    23    C    2  S      Ryd( 3S)     0.00023       0.61147
    24    C    2  S      Ryd( 5S)     0.00000       3.93623
    25    C    2  px     Val( 2p)     1.13210      -0.05572
    26    C    2  px     Ryd( 4p)     0.00375       0.41798
    27    C    2  px     Ryd( 3p)     0.00009       0.34483
    28    C    2  py     Val( 2p)     1.21757      -0.05335
    29    C    2  py     Ryd( 4p)     0.00333       0.82818
    30    C    2  py     Ryd( 3p)     0.00030       0.36226
    31    C    2  pz     Val( 2p)     0.99627      -0.11813
    32    C    2  pz     Ryd( 4p)     0.00272       0.43868
    33    C    2  pz     Ryd( 3p)     0.00027       0.38714
    34    C    2  dxy    Ryd( 3d)     0.00104       2.24609
    35    C    2  dxz    Ryd( 3d)     0.00063       1.90272
    36    C    2  dyz    Ryd( 3d)     0.00000       1.67831
    37    C    2  dx2y2  Ryd( 3d)     0.00059       2.29580
    38    C    2  dz2    Ryd( 3d)     0.00057       2.10538

    39    H    3  S      Val( 1S)     0.77829       0.07897
    40    H    3  S      Ryd( 2S)     0.00088       0.61518

    41    H    4  S      Val( 1S)     0.77669       0.08065
    42    H    4  S      Ryd( 2S)     0.00088       0.61583

    43    H    5  S      Val( 1S)     0.77829       0.07897
    44    H    5  S      Ryd( 2S)     0.00088       0.61518

    45    H    6  S      Val( 1S)     0.77669       0.08065
    46    H    6  S      Ryd( 2S)     0.00088       0.61583

    47    C    7  S      Cor( 1S)     1.99926     -10.06299
    48    C    7  S      Val( 2S)     1.08290      -0.24927
    49    C    7  S      Ryd( 4S)     0.00144       0.86056
    50    C    7  S      Ryd( 3S)     0.00023       0.63779
    51    C    7  S      Ryd( 5S)     0.00000       3.89255
    52    C    7  px     Val( 2p)     1.13206      -0.05368
    53    C    7  px     Ryd( 4p)     0.00374       0.41997
    54    C    7  px     Ryd( 3p)     0.00009       0.34619
    55    C    7  py     Val( 2p)     1.10712      -0.08372
    56    C    7  py     Ryd( 4p)     0.00304       0.63429
    57    C    7  py     Ryd( 3p)     0.00029       0.35245
    58    C    7  pz     Val( 2p)     1.10652      -0.08349
    59    C    7  pz     Ryd( 4p)     0.00299       0.63652
    60    C    7  pz     Ryd( 3p)     0.00032       0.39758
    61    C    7  dxy    Ryd( 3d)     0.00084       2.07644
    62    C    7  dxz    Ryd( 3d)     0.00084       2.07656
    63    C    7  dyz    Ryd( 3d)     0.00071       2.03065
    64    C    7  dx2y2  Ryd( 3d)     0.00033       2.20169
    65    C    7  dz2    Ryd( 3d)     0.00011       1.85426

    66    C    8  S      Cor( 1S)     1.99926     -10.06299
    67    C    8  S      Val( 2S)     1.08290      -0.24927
    68    C    8  S      Ryd( 4S)     0.00144       0.86056
    69    C    8  S      Ryd( 3S)     0.00023       0.63779
    70    C    8  S      Ryd( 5S)     0.00000       3.89255
    71    C    8  px     Val( 2p)     1.13206      -0.05368
    72    C    8  px     Ryd( 4p)     0.00374       0.41997
    73    C    8  px     Ryd( 3p)     0.00009       0.34619
    74    C    8  py     Val( 2p)     1.10712      -0.08372
    75    C    8  py     Ryd( 4p)     0.00304       0.63429
    76    C    8  py     Ryd( 3p)     0.00029       0.35245
    77    C    8  pz     Val( 2p)     1.10652      -0.08349
    78    C    8  pz     Ryd( 4p)     0.00299       0.63652
    79    C    8  pz     Ryd( 3p)     0.00032       0.39758
    80    C    8  dxy    Ryd( 3d)     0.00084       2.07644
    81    C    8  dxz    Ryd( 3d)     0.00084       2.07656
    82    C    8  dyz    Ryd( 3d)     0.00071       2.03065
    83    C    8  dx2y2  Ryd( 3d)     0.00033       2.20169
    84    C    8  dz2    Ryd( 3d)     0.00011       1.85426

    85    H    9  S      Val( 1S)     0.77684       0.08282
    86    H    9  S      Ryd( 2S)     0.00096       0.61806

    87    H   10  S      Val( 1S)     0.77855       0.08090
    88    H   10  S      Ryd( 2S)     0.00089       0.61644

    89    H   11  S      Val( 1S)     0.77684       0.08282
    90    H   11  S      Ryd( 2S)     0.00096       0.61806

    91    H   12  S      Val( 1S)     0.77855       0.08090
    92    H   12  S      Ryd( 2S)     0.00089       0.61644

 WARNING:  Population inversion found on atom  C    1
           Population inversion found on atom  C    2
           Population inversion found on atom  C    7
           Population inversion found on atom  C    8


 Summary of Natural Population Analysis:                  
                                                          
                                       Natural Population 
                Natural  -----------------------------------------------
    Atom  No    Charge         Core      Valence    Rydberg      Total
 -----------------------------------------------------------------------
      C    1   -0.44318      1.99926     4.42892    0.01500     6.44318
      C    2   -0.44318      1.99926     4.42892    0.01500     6.44318
      H    3    0.22083      0.00000     0.77829    0.00088     0.77917
      H    4    0.22244      0.00000     0.77669    0.00088     0.77756
      H    5    0.22083      0.00000     0.77829    0.00088     0.77917
      H    6    0.22244      0.00000     0.77669    0.00088     0.77756
      C    7   -0.44284      1.99926     4.42860    0.01498     6.44284
      C    8   -0.44284      1.99926     4.42860    0.01498     6.44284
      H    9    0.22220      0.00000     0.77684    0.00096     0.77780
      H   10    0.22056      0.00000     0.77855    0.00089     0.77944
      H   11    0.22220      0.00000     0.77684    0.00096     0.77780
      H   12    0.22056      0.00000     0.77855    0.00089     0.77944
 =======================================================================
   * Total *    0.00000      7.99704    23.93578    0.06718    32.00000

                                 Natural Population      
 --------------------------------------------------------
   Core                       7.99704 ( 99.9631% of   8)
   Valence                   23.93578 ( 99.7324% of  24)
   Natural Minimal Basis     31.93282 ( 99.7901% of  32)
   Natural Rydberg Basis      0.06718 (  0.2099% of  32)
 --------------------------------------------------------

    Atom  No          Natural Electron Configuration
 ----------------------------------------------------------------------------
      C    1      [core]2S( 1.08)2p( 3.35)4p( 0.01)
      C    2      [core]2S( 1.08)2p( 3.35)4p( 0.01)
      H    3            1S( 0.78)
      H    4            1S( 0.78)
      H    5            1S( 0.78)
      H    6            1S( 0.78)
      C    7      [core]2S( 1.08)2p( 3.35)4p( 0.01)
      C    8      [core]2S( 1.08)2p( 3.35)4p( 0.01)
      H    9            1S( 0.78)
      H   10            1S( 0.78)
      H   11            1S( 0.78)
      H   12            1S( 0.78)


 NATURAL BOND ORBITAL ANALYSIS:

                       Occupancies       Lewis Structure    Low   High
           Occ.    -------------------  -----------------   occ   occ
  Cycle   Thresh.   Lewis   Non-Lewis     CR  BD  3C  LP    (L)   (NL)   Dev
 =============================================================================
   1(1)    1.90    31.88799   0.11201      4  12   0   0     0      0    0.04
 -----------------------------------------------------------------------------

 Structure accepted: No low occupancy Lewis orbitals

 --------------------------------------------------------
   Core                      7.99706 ( 99.963% of   8)
   Valence Lewis            23.89093 ( 99.546% of  24)
  ==================       ============================
   Total Lewis              31.88799 ( 99.650% of  32)
  -----------------------------------------------------
   Valence non-Lewis         0.08268 (  0.258% of  32)
   Rydberg non-Lewis         0.02933 (  0.092% of  32)
  ==================       ============================
   Total non-Lewis           0.11201 (  0.350% of  32)
 --------------------------------------------------------


       (Occupancy)   Bond orbital/ Coefficients/ Hybrids
 ---------------------------------------------------------------------------------
     1. (1.99763) BD ( 1) C   1 - C   2  
                ( 50.00%)   0.7071* C   1 s( 38.69%)p 1.58( 61.27%)d 0.00(  0.04%)
                                            0.0000  0.6214 -0.0272 -0.0042 -0.0001
                                           -0.7744  0.0468  0.0023  0.0002  0.0000
                                            0.0001 -0.1035 -0.0055  0.0023  0.0000
                                            0.0027  0.0000  0.0169 -0.0114
                ( 50.00%)   0.7071* C   2 s( 38.69%)p 1.58( 61.27%)d 0.00(  0.04%)
                                            0.0000  0.6214 -0.0272 -0.0042 -0.0001
                                            0.7744 -0.0468 -0.0023  0.0002  0.0000
                                            0.0001 -0.1035 -0.0055  0.0023  0.0000
                                           -0.0027  0.0000  0.0169 -0.0114
     2. (1.99960) BD ( 2) C   1 - C   2  
                ( 50.00%)   0.7071* C   1 s(  0.42%)p99.99( 99.51%)d 0.15(  0.06%)
                                            0.0000  0.0649 -0.0041  0.0020 -0.0002
                                           -0.0807  0.0050 -0.0003 -0.0002  0.0004
                                           -0.0003  0.9928  0.0514 -0.0150  0.0000
                                           -0.0251  0.0001  0.0018 -0.0011
                ( 50.00%)   0.7071* C   2 s(  0.42%)p99.99( 99.51%)d 0.15(  0.06%)
                                            0.0000  0.0649 -0.0041  0.0020 -0.0002
                                            0.0807 -0.0050  0.0003 -0.0002  0.0004
                                           -0.0003  0.9928  0.0514 -0.0150  0.0000
                                            0.0251  0.0001  0.0018 -0.0011
     3. (1.98707) BD ( 1) C   1 - H   3  
                ( 61.13%)   0.7818* C   1 s( 30.44%)p 2.28( 69.50%)d 0.00(  0.06%)
                                           -0.0002  0.5516  0.0123  0.0018  0.0001
                                            0.4414 -0.0153 -0.0009  0.7070  0.0036
                                            0.0105  0.0001 -0.0001  0.0009  0.0180
                                            0.0000  0.0000 -0.0106 -0.0136
                ( 38.87%)   0.6235* H   3 s(100.00%)
                                            1.0000  0.0023
     4. (1.98701) BD ( 1) C   1 - H   4  
                ( 61.21%)   0.7824* C   1 s( 30.49%)p 2.28( 69.45%)d 0.00(  0.06%)
                                           -0.0002  0.5520  0.0122  0.0019  0.0000
                                            0.4414 -0.0149 -0.0010 -0.7066 -0.0036
                                           -0.0105 -0.0002 -0.0005  0.0010 -0.0180
                                            0.0000  0.0001 -0.0106 -0.0136
                ( 38.79%)   0.6228* H   4 s(100.00%)
                                            1.0000  0.0023
     5. (1.98707) BD ( 1) C   2 - H   5  
                ( 61.13%)   0.7818* C   2 s( 30.44%)p 2.28( 69.50%)d 0.00(  0.06%)
                                            0.0002 -0.5516 -0.0123 -0.0018 -0.0001
                                            0.4414 -0.0153 -0.0009 -0.7070 -0.0036
                                           -0.0105 -0.0001  0.0001 -0.0009  0.0180
                                            0.0000  0.0000  0.0106  0.0136
                ( 38.87%)   0.6235* H   5 s(100.00%)
                                           -1.0000 -0.0023
     6. (1.98701) BD ( 1) C   2 - H   6  
                ( 61.21%)   0.7824* C   2 s( 30.49%)p 2.28( 69.45%)d 0.00(  0.06%)
                                            0.0002 -0.5520 -0.0122 -0.0019  0.0000
                                            0.4414 -0.0149 -0.0010  0.7066  0.0036
                                            0.0105  0.0002  0.0005 -0.0010 -0.0180
                                            0.0000 -0.0001  0.0106  0.0136
                ( 38.79%)   0.6228* H   6 s(100.00%)
                                           -1.0000 -0.0023
     7. (1.99942) BD ( 1) C   7 - C   8  
                ( 50.00%)   0.7071* C   7 s(  7.71%)p11.97( 92.23%)d 0.01(  0.06%)
                                            0.0000  0.2774 -0.0111 -0.0036  0.0002
                                           -0.3464  0.0204  0.0016  0.6320  0.0331
                                           -0.0107  0.6326  0.0323 -0.0092 -0.0160
                                           -0.0160 -0.0005  0.0080 -0.0044
                ( 50.00%)   0.7071* C   8 s(  7.71%)p11.97( 92.23%)d 0.01(  0.06%)
                                            0.0000  0.2774 -0.0111 -0.0036  0.0002
                                            0.3464 -0.0204 -0.0016  0.6320  0.0331
                                           -0.0107  0.6326  0.0323 -0.0092  0.0160
                                            0.0160 -0.0005  0.0080 -0.0044
     8. (1.99800) BD ( 2) C   7 - C   8  
                ( 50.00%)   0.7071* C   7 s( 31.41%)p 2.18( 68.54%)d 0.00(  0.05%)
                                            0.0000  0.5599 -0.0252 -0.0023 -0.0002
                                           -0.6973  0.0424  0.0018 -0.3138 -0.0165
                                            0.0053 -0.3137 -0.0158  0.0039  0.0079
                                            0.0079 -0.0013  0.0158 -0.0093
                ( 50.00%)   0.7071* C   8 s( 31.41%)p 2.18( 68.54%)d 0.00(  0.05%)
                                            0.0000  0.5599 -0.0252 -0.0023 -0.0002
                                            0.6973 -0.0424 -0.0018 -0.3138 -0.0165
                                            0.0053 -0.3137 -0.0158  0.0039 -0.0079
                                           -0.0079 -0.0013  0.0158 -0.0093
     9. (1.98698) BD ( 1) C   7 - H   9  
                ( 61.20%)   0.7823* C   7 s( 30.49%)p 2.28( 69.44%)d 0.00(  0.06%)
                                           -0.0002  0.5521  0.0123  0.0019  0.0000
                                            0.4415 -0.0147 -0.0008  0.5000  0.0028
                                            0.0075 -0.4992 -0.0019 -0.0088  0.0127
                                           -0.0127 -0.0170 -0.0021  0.0011
                ( 38.80%)   0.6229* H   9 s(100.00%)
                                            1.0000  0.0023
    10. (1.98706) BD ( 1) C   7 - H  10  
                ( 61.11%)   0.7818* C   7 s( 30.43%)p 2.28( 69.51%)d 0.00(  0.06%)
                                           -0.0002  0.5515  0.0123  0.0016  0.0001
                                            0.4414 -0.0152 -0.0012 -0.4999 -0.0026
                                           -0.0074  0.5001  0.0028  0.0067 -0.0127
                                            0.0128 -0.0171 -0.0020  0.0012
                ( 38.89%)   0.6236* H  10 s(100.00%)
                                            1.0000  0.0023
    11. (1.98698) BD ( 1) C   8 - H  11  
                ( 61.20%)   0.7823* C   8 s( 30.49%)p 2.28( 69.44%)d 0.00(  0.06%)
                                            0.0002 -0.5521 -0.0123 -0.0019  0.0000
                                            0.4415 -0.0147 -0.0008 -0.5000 -0.0028
                                           -0.0075  0.4992  0.0019  0.0088  0.0127
                                           -0.0127  0.0170  0.0021 -0.0011
                ( 38.80%)   0.6229* H  11 s(100.00%)
                                           -1.0000 -0.0023
    12. (1.98706) BD ( 1) C   8 - H  12  
                ( 61.11%)   0.7818* C   8 s( 30.43%)p 2.28( 69.51%)d 0.00(  0.06%)
                                            0.0002 -0.5515 -0.0123 -0.0016 -0.0001
                                            0.4414 -0.0152 -0.0012  0.4999  0.0026
                                            0.0074 -0.5001 -0.0028 -0.0067 -0.0127
                                            0.0128  0.0171  0.0020 -0.0012
                ( 38.89%)   0.6236* H  12 s(100.00%)
                                           -1.0000 -0.0023
    13. (1.99927) CR ( 1) C   1           s(100.00%)p 0.00(  0.00%)
                                            1.0000  0.0002  0.0000  0.0000  0.0000
                                            0.0002  0.0000  0.0000  0.0000  0.0000
                                            0.0000  0.0000  0.0000  0.0000  0.0000
                                            0.0000  0.0000  0.0000  0.0000
    14. (1.99927) CR ( 1) C   2           s(100.00%)p 0.00(  0.00%)
                                            1.0000  0.0002  0.0000  0.0000  0.0000
                                           -0.0002  0.0000  0.0000  0.0000  0.0000
                                            0.0000  0.0000  0.0000  0.0000  0.0000
                                            0.0000  0.0000  0.0000  0.0000
    15. (1.99926) CR ( 1) C   7           s(100.00%)p 0.00(  0.00%)
                                            1.0000  0.0002  0.0000  0.0000  0.0000
                                            0.0002  0.0000  0.0000  0.0000  0.0000
                                            0.0000  0.0000  0.0000  0.0000  0.0000
                                            0.0000  0.0000  0.0000  0.0000
    16. (1.99926) CR ( 1) C   8           s(100.00%)p 0.00(  0.00%)
                                            1.0000  0.0002  0.0000  0.0000  0.0000
                                           -0.0002  0.0000  0.0000  0.0000  0.0000
                                            0.0000  0.0000  0.0000  0.0000  0.0000
                                            0.0000  0.0000  0.0000  0.0000
    17. (0.00371) RY*( 1) C   1           s(  0.00%)p 1.00( 91.23%)d 0.10(  8.77%)
                                            0.0000  0.0001  0.0010 -0.0005  0.0000
                                           -0.0001 -0.0011  0.0014  0.0141 -0.9486
                                           -0.1104  0.0003  0.0001 -0.0011 -0.2962
                                            0.0001 -0.0001 -0.0001  0.0000
    18. (0.00157) RY*( 2) C   1           s( 27.56%)p 2.62( 72.26%)d 0.01(  0.18%)
                                            0.0000  0.0113  0.4701 -0.2330 -0.0119
                                           -0.0563 -0.8181 -0.2232 -0.0003  0.0006
                                            0.0020  0.0011  0.0070  0.0152  0.0013
                                            0.0003 -0.0003 -0.0186 -0.0385
    19. (0.00015) RY*( 3) C   1           s( 58.11%)p 0.69( 40.38%)d 0.03(  1.50%)
                                            0.0000  0.0042 -0.2079  0.7297 -0.0737
                                           -0.0128 -0.2743 -0.1820  0.0009  0.0057
                                           -0.0400  0.0236 -0.3975  0.3676 -0.0065
                                           -0.0158  0.0062 -0.0864  0.0851
    20. (0.00007) RY*( 4) C   1           s( 41.23%)p 1.27( 52.40%)d 0.15(  6.37%)
    21. (0.00001) RY*( 5) C   1           s(  0.02%)p99.99( 99.98%)d 0.17(  0.00%)
    22. (0.00000) RY*( 6) C   1           s( 98.66%)p 0.01(  1.31%)d 0.00(  0.03%)
    23. (0.00000) RY*( 7) C   1           s(  0.05%)p99.99( 99.95%)d 0.09(  0.00%)
    24. (0.00000) RY*( 8) C   1           s( 61.31%)p 0.63( 38.61%)d 0.00(  0.09%)
    25. (0.00000) RY*( 9) C   1           s(  6.97%)p13.35( 93.02%)d 0.00(  0.01%)
    26. (0.00000) RY*(10) C   1           s(  0.00%)p 1.00(  8.84%)d10.31( 91.16%)
    27. (0.00000) RY*(11) C   1           s(  0.01%)p 1.00(  0.12%)d99.99( 99.88%)
    28. (0.00000) RY*(12) C   1           s(  0.00%)p 0.00(  0.01%)d 1.00( 99.99%)
    29. (0.00000) RY*(13) C   1           s(  2.05%)p 0.34(  0.69%)d47.34( 97.25%)
    30. (0.00001) RY*(14) C   1           s(  3.99%)p 0.37(  1.47%)d23.71( 94.54%)
    31. (0.00371) RY*( 1) C   2           s(  0.00%)p 1.00( 91.23%)d 0.10(  8.77%)
                                            0.0000  0.0001  0.0010 -0.0005  0.0000
                                            0.0001  0.0011 -0.0014  0.0141 -0.9486
                                           -0.1104  0.0003  0.0001 -0.0011  0.2962
                                           -0.0001 -0.0001 -0.0001  0.0000
    32. (0.00157) RY*( 2) C   2           s( 27.56%)p 2.62( 72.26%)d 0.01(  0.18%)
                                            0.0000  0.0113  0.4701 -0.2330 -0.0119
                                            0.0563  0.8181  0.2232 -0.0003  0.0006
                                            0.0020  0.0011  0.0070  0.0152 -0.0013
                                           -0.0003 -0.0003 -0.0186 -0.0385
    33. (0.00015) RY*( 3) C   2           s( 58.11%)p 0.69( 40.38%)d 0.03(  1.50%)
                                            0.0000  0.0042 -0.2079  0.7297 -0.0737
                                            0.0128  0.2743  0.1820  0.0009  0.0057
                                           -0.0400  0.0236 -0.3975  0.3676  0.0065
                                            0.0158  0.0062 -0.0864  0.0851
    34. (0.00007) RY*( 4) C   2           s( 41.23%)p 1.27( 52.40%)d 0.15(  6.37%)
    35. (0.00001) RY*( 5) C   2           s(  0.02%)p99.99( 99.98%)d 0.17(  0.00%)
    36. (0.00000) RY*( 6) C   2           s( 98.66%)p 0.01(  1.31%)d 0.00(  0.03%)
    37. (0.00000) RY*( 7) C   2           s(  0.05%)p99.99( 99.95%)d 0.09(  0.00%)
    38. (0.00000) RY*( 8) C   2           s( 61.31%)p 0.63( 38.61%)d 0.00(  0.09%)
    39. (0.00000) RY*( 9) C   2           s(  6.97%)p13.35( 93.02%)d 0.00(  0.01%)
    40. (0.00000) RY*(10) C   2           s(  0.00%)p 1.00(  8.84%)d10.31( 91.16%)
    41. (0.00000) RY*(11) C   2           s(  0.01%)p 1.00(  0.12%)d99.99( 99.88%)
    42. (0.00000) RY*(12) C   2           s(  0.00%)p 0.00(  0.01%)d 1.00( 99.99%)
    43. (0.00000) RY*(13) C   2           s(  2.05%)p 0.34(  0.69%)d47.34( 97.25%)
    44. (0.00001) RY*(14) C   2           s(  3.99%)p 0.37(  1.47%)d23.71( 94.54%)
    45. (0.00088) RY*( 1) H   3           s(100.00%)
                                           -0.0023  1.0000
    46. (0.00088) RY*( 1) H   4           s(100.00%)
                                           -0.0023  1.0000
    47. (0.00088) RY*( 1) H   5           s(100.00%)
                                           -0.0023  1.0000
    48. (0.00088) RY*( 1) H   6           s(100.00%)
                                           -0.0023  1.0000
    49. (0.00372) RY*( 1) C   7           s(  0.00%)p 1.00( 91.26%)d 0.10(  8.74%)
                                            0.0000  0.0003 -0.0005  0.0016 -0.0012
                                           -0.0001 -0.0039  0.0079 -0.0103  0.6698
                                            0.0751  0.0096 -0.6718 -0.0820  0.2088
                                           -0.2093  0.0003  0.0000  0.0009
    50. (0.00158) RY*( 2) C   7           s( 27.14%)p 2.68( 72.67%)d 0.01(  0.18%)
                                            0.0000  0.0114  0.4613 -0.2418 -0.0062
                                           -0.0561 -0.8201 -0.2255 -0.0006 -0.0062
                                           -0.0014 -0.0011 -0.0049 -0.0110 -0.0013
                                            0.0020 -0.0426  0.0035  0.0000
    51. (0.00013) RY*( 3) C   7           s( 65.90%)p 0.48( 31.47%)d 0.04(  2.63%)
                                            0.0000  0.0042 -0.0125  0.8114 -0.0210
                                           -0.0158 -0.1918 -0.1937 -0.0157  0.1738
                                            0.0306 -0.0078  0.2439 -0.3863  0.0383
                                           -0.0227  0.0334 -0.1448  0.0476
    52. (0.00007) RY*( 4) C   7           s( 21.25%)p 3.41( 72.53%)d 0.29(  6.22%)
    53. (0.00000) RY*( 5) C   7           s(  1.02%)p97.49( 98.96%)d 0.03(  0.03%)
    54. (0.00000) RY*( 6) C   7           s(  0.17%)p99.99( 99.82%)d 0.07(  0.01%)
    55. (0.00000) RY*( 7) C   7           s(  0.00%)p 1.00(100.00%)d 0.00(  0.00%)
    56. (0.00000) RY*( 8) C   7           s( 99.98%)p 0.00(  0.02%)d 0.00(  0.00%)
    57. (0.00000) RY*( 9) C   7           s( 78.40%)p 0.27( 21.55%)d 0.00(  0.05%)
    58. (0.00000) RY*(10) C   7           s(  0.00%)p 1.00(  5.22%)d18.17( 94.78%)
    59. (0.00000) RY*(11) C   7           s(  0.00%)p 1.00(  4.39%)d21.77( 95.61%)
    60. (0.00000) RY*(12) C   7           s(  1.11%)p 0.91(  1.01%)d88.41( 97.89%)
    61. (0.00000) RY*(13) C   7           s(  3.85%)p 0.11(  0.43%)d24.87( 95.72%)
    62. (0.00000) RY*(14) C   7           s(  1.14%)p 0.84(  0.95%)d86.11( 97.91%)
    63. (0.00372) RY*( 1) C   8           s(  0.00%)p 1.00( 91.26%)d 0.10(  8.74%)
                                            0.0000  0.0003 -0.0005  0.0016 -0.0012
                                            0.0001  0.0039 -0.0079 -0.0103  0.6698
                                            0.0751  0.0096 -0.6718 -0.0820 -0.2088
                                            0.2093  0.0003  0.0000  0.0009
    64. (0.00158) RY*( 2) C   8           s( 27.14%)p 2.68( 72.67%)d 0.01(  0.18%)
                                            0.0000  0.0114  0.4613 -0.2418 -0.0062
                                            0.0561  0.8201  0.2255 -0.0006 -0.0062
                                           -0.0014 -0.0011 -0.0049 -0.0110  0.0013
                                           -0.0020 -0.0426  0.0035  0.0000
    65. (0.00013) RY*( 3) C   8           s( 65.90%)p 0.48( 31.47%)d 0.04(  2.63%)
                                            0.0000  0.0042 -0.0125  0.8114 -0.0210
                                            0.0158  0.1918  0.1937 -0.0157  0.1738
                                            0.0306 -0.0078  0.2439 -0.3863 -0.0383
                                            0.0227  0.0334 -0.1448  0.0476
    66. (0.00007) RY*( 4) C   8           s( 21.25%)p 3.41( 72.53%)d 0.29(  6.22%)
    67. (0.00000) RY*( 5) C   8           s(  1.02%)p97.49( 98.96%)d 0.03(  0.03%)
    68. (0.00000) RY*( 6) C   8           s(  0.17%)p99.99( 99.82%)d 0.07(  0.01%)
    69. (0.00000) RY*( 7) C   8           s(  0.00%)p 1.00(100.00%)d 0.00(  0.00%)
    70. (0.00000) RY*( 8) C   8           s( 99.98%)p 0.00(  0.02%)d 0.00(  0.00%)
    71. (0.00000) RY*( 9) C   8           s( 78.40%)p 0.27( 21.55%)d 0.00(  0.05%)
    72. (0.00000) RY*(10) C   8           s(  0.00%)p 1.00(  5.22%)d18.17( 94.78%)
    73. (0.00000) RY*(11) C   8           s(  0.00%)p 1.00(  4.39%)d21.77( 95.61%)
    74. (0.00000) RY*(12) C   8           s(  1.11%)p 0.91(  1.01%)d88.41( 97.89%)
    75. (0.00000) RY*(13) C   8           s(  3.85%)p 0.11(  0.43%)d24.87( 95.72%)
    76. (0.00000) RY*(14) C   8           s(  1.14%)p 0.84(  0.95%)d86.11( 97.91%)
    77. (0.00097) RY*( 1) H   9           s(100.00%)
                                           -0.0023  1.0000
    78. (0.00090) RY*( 1) H  10           s(100.00%)
                                           -0.0023  1.0000
    79. (0.00097) RY*( 1) H  11           s(100.00%)
                                           -0.0023  1.0000
    80. (0.00090) RY*( 1) H  12           s(100.00%)
                                           -0.0023  1.0000
    81. (0.00288) BD*( 1) C   1 - C   2  
                ( 50.00%)   0.7071* C   1 s( 38.69%)p 1.58( 61.27%)d 0.00(  0.04%)
                                            0.0000  0.6214 -0.0272 -0.0042 -0.0001
                                           -0.7744  0.0468  0.0023  0.0002  0.0000
                                            0.0001 -0.1035 -0.0055  0.0023  0.0000
                                            0.0027  0.0000  0.0169 -0.0114
                ( 50.00%)  -0.7071* C   2 s( 38.69%)p 1.58( 61.27%)d 0.00(  0.04%)
                                            0.0000  0.6214 -0.0272 -0.0042 -0.0001
                                            0.7744 -0.0468 -0.0023  0.0002  0.0000
                                            0.0001 -0.1035 -0.0055  0.0023  0.0000
                                           -0.0027  0.0000  0.0169 -0.0114
    82. (0.00005) BD*( 2) C   1 - C   2  
                ( 50.00%)   0.7071* C   1 s(  0.42%)p99.99( 99.51%)d 0.15(  0.06%)
                ( 50.00%)  -0.7071* C   2 s(  0.42%)p99.99( 99.51%)d 0.15(  0.06%)
    83. (0.00961) BD*( 1) C   1 - H   3  
                ( 38.87%)   0.6235* C   1 s( 30.44%)p 2.28( 69.50%)d 0.00(  0.06%)
                                            0.0002 -0.5516 -0.0123 -0.0018 -0.0001
                                           -0.4414  0.0153  0.0009 -0.7070 -0.0036
                                           -0.0105 -0.0001  0.0001 -0.0009 -0.0180
                                            0.0000  0.0000  0.0106  0.0136
                ( 61.13%)  -0.7818* H   3 s(100.00%)
                                           -1.0000 -0.0023
    84. (0.00958) BD*( 1) C   1 - H   4  
                ( 38.79%)   0.6228* C   1 s( 30.49%)p 2.28( 69.45%)d 0.00(  0.06%)
                                            0.0002 -0.5520 -0.0122 -0.0019  0.0000
                                           -0.4414  0.0149  0.0010  0.7066  0.0036
                                            0.0105  0.0002  0.0005 -0.0010  0.0180
                                            0.0000 -0.0001  0.0106  0.0136
                ( 61.21%)  -0.7824* H   4 s(100.00%)
                                           -1.0000 -0.0023
    85. (0.00961) BD*( 1) C   2 - H   5  
                ( 38.87%)   0.6235* C   2 s( 30.44%)p 2.28( 69.50%)d 0.00(  0.06%)
                                           -0.0002  0.5516  0.0123  0.0018  0.0001
                                           -0.4414  0.0153  0.0009  0.7070  0.0036
                                            0.0105  0.0001 -0.0001  0.0009 -0.0180
                                            0.0000  0.0000 -0.0106 -0.0136
                ( 61.13%)  -0.7818* H   5 s(100.00%)
                                            1.0000  0.0023
    86. (0.00958) BD*( 1) C   2 - H   6  
                ( 38.79%)   0.6228* C   2 s( 30.49%)p 2.28( 69.45%)d 0.00(  0.06%)
                                           -0.0002  0.5520  0.0122  0.0019  0.0000
                                           -0.4414  0.0149  0.0010 -0.7066 -0.0036
                                           -0.0105 -0.0002 -0.0005  0.0010  0.0180
                                            0.0000  0.0001 -0.0106 -0.0136
                ( 61.21%)  -0.7824* H   6 s(100.00%)
                                            1.0000  0.0023
    87. (0.00058) BD*( 1) C   7 - C   8  
                ( 50.00%)   0.7071* C   7 s(  7.71%)p11.97( 92.23%)d 0.01(  0.06%)
                                            0.0000 -0.2774  0.0111  0.0036 -0.0002
                                            0.3464 -0.0204 -0.0016 -0.6320 -0.0331
                                            0.0107 -0.6326 -0.0323  0.0092  0.0160
                                            0.0160  0.0005 -0.0080  0.0044
                ( 50.00%)  -0.7071* C   8 s(  7.71%)p11.97( 92.23%)d 0.01(  0.06%)
                                            0.0000 -0.2774  0.0111  0.0036 -0.0002
                                           -0.3464  0.0204  0.0016 -0.6320 -0.0331
                                            0.0107 -0.6326 -0.0323  0.0092 -0.0160
                                           -0.0160  0.0005 -0.0080  0.0044
    88. (0.00233) BD*( 2) C   7 - C   8  
                ( 50.00%)   0.7071* C   7 s( 31.41%)p 2.18( 68.54%)d 0.00(  0.05%)
                                            0.0000 -0.5599  0.0252  0.0023  0.0002
                                            0.6973 -0.0424 -0.0018  0.3138  0.0165
                                           -0.0053  0.3137  0.0158 -0.0039 -0.0079
                                           -0.0079  0.0013 -0.0158  0.0093
                ( 50.00%)  -0.7071* C   8 s( 31.41%)p 2.18( 68.54%)d 0.00(  0.05%)
                                            0.0000 -0.5599  0.0252  0.0023  0.0002
                                           -0.6973  0.0424  0.0018  0.3138  0.0165
                                           -0.0053  0.3137  0.0158 -0.0039  0.0079
                                            0.0079  0.0013 -0.0158  0.0093
    89. (0.00962) BD*( 1) C   7 - H   9  
                ( 38.80%)   0.6229* C   7 s( 30.49%)p 2.28( 69.44%)d 0.00(  0.06%)
                                            0.0002 -0.5521 -0.0123 -0.0019  0.0000
                                           -0.4415  0.0147  0.0008 -0.5000 -0.0028
                                           -0.0075  0.4992  0.0019  0.0088 -0.0127
                                            0.0127  0.0170  0.0021 -0.0011
                ( 61.20%)  -0.7823* H   9 s(100.00%)
                                           -1.0000 -0.0023
    90. (0.00961) BD*( 1) C   7 - H  10  
                ( 38.89%)   0.6236* C   7 s( 30.43%)p 2.28( 69.51%)d 0.00(  0.06%)
                                            0.0002 -0.5515 -0.0123 -0.0016 -0.0001
                                           -0.4414  0.0152  0.0012  0.4999  0.0026
                                            0.0074 -0.5001 -0.0028 -0.0067  0.0127
                                           -0.0128  0.0171  0.0020 -0.0012
                ( 61.11%)  -0.7818* H  10 s(100.00%)
                                           -1.0000 -0.0023
    91. (0.00962) BD*( 1) C   8 - H  11  
                ( 38.80%)   0.6229* C   8 s( 30.49%)p 2.28( 69.44%)d 0.00(  0.06%)
                                           -0.0002  0.5521  0.0123  0.0019  0.0000
                                           -0.4415  0.0147  0.0008  0.5000  0.0028
                                            0.0075 -0.4992 -0.0019 -0.0088 -0.0127
                                            0.0127 -0.0170 -0.0021  0.0011
                ( 61.20%)  -0.7823* H  11 s(100.00%)
                                            1.0000  0.0023
    92. (0.00961) BD*( 1) C   8 - H  12  
                ( 38.89%)   0.6236* C   8 s( 30.43%)p 2.28( 69.51%)d 0.00(  0.06%)
                                           -0.0002  0.5515  0.0123  0.0016  0.0001
                                           -0.4414  0.0152  0.0012 -0.4999 -0.0026
                                           -0.0074  0.5001  0.0028  0.0067  0.0127
                                           -0.0128 -0.0171 -0.0020  0.0012
                ( 61.11%)  -0.7818* H  12 s(100.00%)
                                            1.0000  0.0023


 NHO Directionality and "Bond Bending" (deviations from line of nuclear centers)

         [Thresholds for printing:  angular deviation  >  1.0 degree]
                                    hybrid p-character > 25.0%
                                    orbital occupancy  >  0.10e

                                Line of Centers        Hybrid 1              Hybrid 2
                                ---------------  -------------------   ------------------
                NBO               Theta   Phi    Theta   Phi    Dev    Theta   Phi    Dev
 ========================================================================================
     1. BD (   1) C   1 - C   2    90.0  180.0    98.4  180.0   8.4     98.4    0.0   8.4
     2. BD (   2) C   1 - C   2    90.0  180.0     4.2  180.1  85.8      4.2  359.9  85.8
     7. BD (   1) C   7 - C   8    90.0  180.0    48.1  116.4  70.7     48.1   63.6  70.7
     8. BD (   2) C   7 - C   8    90.0  180.0   114.1  206.4  35.2    114.1  333.6  35.2


 Second Order Perturbation Theory Analysis of Fock Matrix in NBO Basis

     Threshold for printing:   0.50 kcal/mol
    (Intermolecular threshold: 0.05 kcal/mol)
                                                                              E(2)  E(j)-E(i) F(i,j)
         Donor NBO (i)                     Acceptor NBO (j)                 kcal/mol   a.u.    a.u. 
 ===================================================================================================

 within unit  1
   1. BD (   1) C   1 - C   2        / 83. BD*(   1) C   1 - H   3            0.68    1.20    0.025
   1. BD (   1) C   1 - C   2        / 84. BD*(   1) C   1 - H   4            0.68    1.20    0.025
   1. BD (   1) C   1 - C   2        / 85. BD*(   1) C   2 - H   5            0.68    1.20    0.025
   1. BD (   1) C   1 - C   2        / 86. BD*(   1) C   2 - H   6            0.68    1.20    0.025
   3. BD (   1) C   1 - H   3        / 31. RY*(   1) C   2                    1.42    1.56    0.042
   3. BD (   1) C   1 - H   3        / 32. RY*(   2) C   2                    0.65    1.08    0.024
   3. BD (   1) C   1 - H   3        / 81. BD*(   1) C   1 - C   2            0.71    1.15    0.026
   3. BD (   1) C   1 - H   3        / 86. BD*(   1) C   2 - H   6            4.31    0.99    0.058
   4. BD (   1) C   1 - H   4        / 31. RY*(   1) C   2                    1.42    1.56    0.042
   4. BD (   1) C   1 - H   4        / 32. RY*(   2) C   2                    0.65    1.08    0.024
   4. BD (   1) C   1 - H   4        / 81. BD*(   1) C   1 - C   2            0.73    1.15    0.026
   4. BD (   1) C   1 - H   4        / 85. BD*(   1) C   2 - H   5            4.33    0.99    0.058
   5. BD (   1) C   2 - H   5        / 17. RY*(   1) C   1                    1.42    1.56    0.042
   5. BD (   1) C   2 - H   5        / 18. RY*(   2) C   1                    0.65    1.08    0.024
   5. BD (   1) C   2 - H   5        / 81. BD*(   1) C   1 - C   2            0.71    1.15    0.026
   5. BD (   1) C   2 - H   5        / 84. BD*(   1) C   1 - H   4            4.31    0.99    0.058
   6. BD (   1) C   2 - H   6        / 17. RY*(   1) C   1                    1.42    1.56    0.042
   6. BD (   1) C   2 - H   6        / 18. RY*(   2) C   1                    0.65    1.08    0.024
   6. BD (   1) C   2 - H   6        / 81. BD*(   1) C   1 - C   2            0.73    1.15    0.026
   6. BD (   1) C   2 - H   6        / 83. BD*(   1) C   1 - H   3            4.33    0.99    0.058
  13. CR (   1) C   1                / 32. RY*(   2) C   2                    2.77   10.63    0.153
  13. CR (   1) C   1                / 81. BD*(   1) C   1 - C   2            0.70   10.69    0.077
  13. CR (   1) C   1                / 85. BD*(   1) C   2 - H   5            0.67   10.53    0.075
  13. CR (   1) C   1                / 86. BD*(   1) C   2 - H   6            0.67   10.53    0.075
  14. CR (   1) C   2                / 18. RY*(   2) C   1                    2.77   10.63    0.153
  14. CR (   1) C   2                / 81. BD*(   1) C   1 - C   2            0.70   10.69    0.077
  14. CR (   1) C   2                / 83. BD*(   1) C   1 - H   3            0.67   10.53    0.075
  14. CR (   1) C   2                / 84. BD*(   1) C   1 - H   4            0.67   10.53    0.075

 from unit  1 to unit  2
       None above threshold

 from unit  2 to unit  1
       None above threshold

 within unit  2
   8. BD (   2) C   7 - C   8        / 89. BD*(   1) C   7 - H   9            0.60    1.11    0.023
   8. BD (   2) C   7 - C   8        / 90. BD*(   1) C   7 - H  10            0.59    1.11    0.023
   8. BD (   2) C   7 - C   8        / 91. BD*(   1) C   8 - H  11            0.60    1.11    0.023
   8. BD (   2) C   7 - C   8        / 92. BD*(   1) C   8 - H  12            0.59    1.11    0.023
   9. BD (   1) C   7 - H   9        / 63. RY*(   1) C   8                    1.43    1.56    0.042
   9. BD (   1) C   7 - H   9        / 64. RY*(   2) C   8                    0.65    1.08    0.024
   9. BD (   1) C   7 - H   9        / 88. BD*(   2) C   7 - C   8            0.65    1.04    0.023
   9. BD (   1) C   7 - H   9        / 92. BD*(   1) C   8 - H  12            4.32    0.99    0.058
  10. BD (   1) C   7 - H  10        / 63. RY*(   1) C   8                    1.42    1.56    0.042
  10. BD (   1) C   7 - H  10        / 64. RY*(   2) C   8                    0.65    1.09    0.024
  10. BD (   1) C   7 - H  10        / 88. BD*(   2) C   7 - C   8            0.64    1.04    0.023
  10. BD (   1) C   7 - H  10        / 91. BD*(   1) C   8 - H  11            4.31    0.99    0.058
  11. BD (   1) C   8 - H  11        / 49. RY*(   1) C   7                    1.43    1.56    0.042
  11. BD (   1) C   8 - H  11        / 50. RY*(   2) C   7                    0.65    1.08    0.024
  11. BD (   1) C   8 - H  11        / 88. BD*(   2) C   7 - C   8            0.65    1.04    0.023
  11. BD (   1) C   8 - H  11        / 90. BD*(   1) C   7 - H  10            4.32    0.99    0.058
  12. BD (   1) C   8 - H  12        / 49. RY*(   1) C   7                    1.42    1.56    0.042
  12. BD (   1) C   8 - H  12        / 50. RY*(   2) C   7                    0.65    1.09    0.024
  12. BD (   1) C   8 - H  12        / 88. BD*(   2) C   7 - C   8            0.64    1.04    0.023
  12. BD (   1) C   8 - H  12        / 89. BD*(   1) C   7 - H   9            4.31    0.99    0.058
  15. CR (   1) C   7                / 64. RY*(   2) C   8                    2.76   10.63    0.153
  15. CR (   1) C   7                / 88. BD*(   2) C   7 - C   8            0.57   10.58    0.070
  15. CR (   1) C   7                / 91. BD*(   1) C   8 - H  11            0.67   10.53    0.075
  15. CR (   1) C   7                / 92. BD*(   1) C   8 - H  12            0.67   10.53    0.075
  16. CR (   1) C   8                / 50. RY*(   2) C   7                    2.76   10.63    0.153
  16. CR (   1) C   8                / 88. BD*(   2) C   7 - C   8            0.57   10.58    0.070
  16. CR (   1) C   8                / 89. BD*(   1) C   7 - H   9            0.67   10.53    0.075
  16. CR (   1) C   8                / 90. BD*(   1) C   7 - H  10            0.67   10.53    0.075


 Natural Bond Orbitals (Summary):

                                                            Principal Delocalizations
           NBO                        Occupancy    Energy   (geminal,vicinal,remote)
 ====================================================================================
 Molecular unit  1  (C2H4)
     1. BD (   1) C   1 - C   2          1.99763    -0.73462  84(g),86(g),83(g),85(g)
     2. BD (   2) C   1 - C   2          1.99960    -0.28027   
     3. BD (   1) C   1 - H   3          1.98707    -0.52346  86(v),31(v),81(g),32(v)
     4. BD (   1) C   1 - H   4          1.98701    -0.52295  85(v),31(v),81(g),32(v)
     5. BD (   1) C   2 - H   5          1.98707    -0.52346  84(v),17(v),81(g),18(v)
     6. BD (   1) C   2 - H   6          1.98701    -0.52295  83(v),17(v),81(g),18(v)
    13. CR (   1) C   1                  1.99927   -10.06533  32(v),81(g),85(v),86(v)
    14. CR (   1) C   2                  1.99927   -10.06533  18(v),81(g),83(v),84(v)
    17. RY*(   1) C   1                  0.00371     1.03717   
    18. RY*(   2) C   1                  0.00157     0.56146   
    19. RY*(   3) C   1                  0.00015     0.38664   
    20. RY*(   4) C   1                  0.00007     0.53288   
    21. RY*(   5) C   1                  0.00001     0.25130   
    22. RY*(   6) C   1                  0.00000     3.92711   
    23. RY*(   7) C   1                  0.00000     0.32227   
    24. RY*(   8) C   1                  0.00000     0.74608   
    25. RY*(   9) C   1                  0.00000     0.69146   
    26. RY*(  10) C   1                  0.00000     2.07119   
    27. RY*(  11) C   1                  0.00000     1.89908   
    28. RY*(  12) C   1                  0.00000     1.67816   
    29. RY*(  13) C   1                  0.00000     2.23500   
    30. RY*(  14) C   1                  0.00001     2.04796   
    31. RY*(   1) C   2                  0.00371     1.03717   
    32. RY*(   2) C   2                  0.00157     0.56146   
    33. RY*(   3) C   2                  0.00015     0.38664   
    34. RY*(   4) C   2                  0.00007     0.53288   
    35. RY*(   5) C   2                  0.00001     0.25130   
    36. RY*(   6) C   2                  0.00000     3.92711   
    37. RY*(   7) C   2                  0.00000     0.32227   
    38. RY*(   8) C   2                  0.00000     0.74608   
    39. RY*(   9) C   2                  0.00000     0.69146   
    40. RY*(  10) C   2                  0.00000     2.07119   
    41. RY*(  11) C   2                  0.00000     1.89908   
    42. RY*(  12) C   2                  0.00000     1.67816   
    43. RY*(  13) C   2                  0.00000     2.23500   
    44. RY*(  14) C   2                  0.00001     2.04796   
    45. RY*(   1) H   3                  0.00088     0.61392   
    46. RY*(   1) H   4                  0.00088     0.61457   
    47. RY*(   1) H   5                  0.00088     0.61392   
    48. RY*(   1) H   6                  0.00088     0.61457   
    81. BD*(   1) C   1 - C   2          0.00288     0.62842   
    82. BD*(   2) C   1 - C   2          0.00005     0.03599   
    83. BD*(   1) C   1 - H   3          0.00961     0.46427   
    84. BD*(   1) C   1 - H   4          0.00958     0.46543   
    85. BD*(   1) C   2 - H   5          0.00961     0.46427   
    86. BD*(   1) C   2 - H   6          0.00958     0.46543   
       -------------------------------
              Total Lewis   15.94395  ( 99.6507%)
        Valence non-Lewis    0.04131  (  0.2582%)
        Rydberg non-Lewis    0.01458  (  0.0911%)
       -------------------------------
            Total unit  1   15.99983  (100.0000%)
           Charge unit  1    0.00017

 Molecular unit  2  (C2H4)
     7. BD (   1) C   7 - C   8          1.99942    -0.36508   
     8. BD (   2) C   7 - C   8          1.99800    -0.64563  89(g),91(g),90(g),92(g)
     9. BD (   1) C   7 - H   9          1.98698    -0.52088  92(v),63(v),88(g),64(v)
    10. BD (   1) C   7 - H  10          1.98706    -0.52141  91(v),63(v),64(v),88(g)
    11. BD (   1) C   8 - H  11          1.98698    -0.52088  90(v),49(v),88(g),50(v)
    12. BD (   1) C   8 - H  12          1.98706    -0.52141  89(v),49(v),50(v),88(g)
    15. CR (   1) C   7                  1.99926   -10.06335  64(v),92(v),91(v),88(g)
    16. CR (   1) C   8                  1.99926   -10.06335  50(v),90(v),89(v),88(g)
    49. RY*(   1) C   7                  0.00372     1.03871   
    50. RY*(   2) C   7                  0.00158     0.56365   
    51. RY*(   3) C   7                  0.00013     0.56327   
    52. RY*(   4) C   7                  0.00007     0.38844   
    53. RY*(   5) C   7                  0.00000     0.29268   
    54. RY*(   6) C   7                  0.00000     0.58258   
    55. RY*(   7) C   7                  0.00000     0.31622   
    56. RY*(   8) C   7                  0.00000     3.91239   
    57. RY*(   9) C   7                  0.00000     0.82210   
    58. RY*(  10) C   7                  0.00000     1.97339   
    59. RY*(  11) C   7                  0.00000     1.97825   
    60. RY*(  12) C   7                  0.00000     2.01783   
    61. RY*(  13) C   7                  0.00000     2.13471   
    62. RY*(  14) C   7                  0.00000     1.80887   
    63. RY*(   1) C   8                  0.00372     1.03871   
    64. RY*(   2) C   8                  0.00158     0.56365   
    65. RY*(   3) C   8                  0.00013     0.56327   
    66. RY*(   4) C   8                  0.00007     0.38844   
    67. RY*(   5) C   8                  0.00000     0.29268   
    68. RY*(   6) C   8                  0.00000     0.58258   
    69. RY*(   7) C   8                  0.00000     0.31622   
    70. RY*(   8) C   8                  0.00000     3.91239   
    71. RY*(   9) C   8                  0.00000     0.82210   
    72. RY*(  10) C   8                  0.00000     1.97339   
    73. RY*(  11) C   8                  0.00000     1.97825   
    74. RY*(  12) C   8                  0.00000     2.01783   
    75. RY*(  13) C   8                  0.00000     2.13471   
    76. RY*(  14) C   8                  0.00000     1.80887   
    77. RY*(   1) H   9                  0.00097     0.61677   
    78. RY*(   1) H  10                  0.00090     0.61518   
    79. RY*(   1) H  11                  0.00097     0.61677   
    80. RY*(   1) H  12                  0.00090     0.61518   
    87. BD*(   1) C   7 - C   8          0.00058     0.15108   
    88. BD*(   2) C   7 - C   8          0.00233     0.51733   
    89. BD*(   1) C   7 - H   9          0.00962     0.46792   
    90. BD*(   1) C   7 - H  10          0.00961     0.46639   
    91. BD*(   1) C   8 - H  11          0.00962     0.46792   
    92. BD*(   1) C   8 - H  12          0.00961     0.46639   
       -------------------------------
              Total Lewis   15.94405  ( 99.6493%)
        Valence non-Lewis    0.04137  (  0.2586%)
        Rydberg non-Lewis    0.01475  (  0.0922%)
       -------------------------------
            Total unit  2   16.00016  (100.0000%)
           Charge unit  2   -0.00016
 1\1\GINC-RSWPRH01\SP\RB3LYP\6-31+G(d)\C4H8\ROOT\18-Sep-2016\0\\# B3LYP
 /6-31+G* int=ultrafine nosymm pop=nboread\\A_B_45\\0,1\C,0,0.672749,0.
 ,0.\C,0,-0.672749,0.,0.\H,0,1.242623,0.934806,0.\H,0,1.242623,-0.93480
 6,0.\H,0,-1.242623,0.934806,0.\H,0,-1.242623,-0.934806,0.\C,0,0.672749
 ,0.,5.\C,0,-0.672749,0.,5.\H,0,1.242623,0.661008,4.338992\H,0,1.242623
 ,-0.661008,5.661008\H,0,-1.242623,0.661008,4.338992\H,0,-1.242623,-0.6
 61008,5.661008\\Version=ES64L-G09RevD.01\HF=-157.1857844\RMSD=3.909e-0
 9\Dipole=0.,-0.0069067,-0.0069423\Quadrupole=1.9126397,0.5777698,-2.49
 04096,0.,0.,-1.3757356\PG=CS [X(C4H8)]\\@


 TIME IS NATURE'S WAY OF MAKING SURE EVERYTHING
 DOESN'T HAPPEN AT ONCE.
                     - WOODY ALLEN
 Job cpu time:       0 days  0 hours  0 minutes 26.5 seconds.
 File lengths (MBytes):  RWF=      5 Int=      0 D2E=      0 Chk=      1 Scr=      1
 Normal termination of Gaussian 09 at Sun Sep 18 08:51:03 2016.
