A_B_45                                                                  
SP        RB3LYP                                                      6-31+G(d)           
Number of atoms                            I               12
Info1-9                                    I   N=           9
          23          23           0           0           0         110
           1          18        -502
Charge                                     I                0
Multiplicity                               I                1
Number of electrons                        I               32
Number of alpha electrons                  I               16
Number of beta electrons                   I               16
Number of basis functions                  I               92
Number of independent functions            I               92
Number of point charges in /Mol/           I                0
Number of translation vectors              I                0
Atomic numbers                             I   N=          12
           6           6           1           1           1           1
           6           6           1           1           1           1
Nuclear charges                            R   N=          12
  6.00000000E+00  6.00000000E+00  1.00000000E+00  1.00000000E+00  1.00000000E+00
  1.00000000E+00  6.00000000E+00  6.00000000E+00  1.00000000E+00  1.00000000E+00
  1.00000000E+00  1.00000000E+00
Current cartesian coordinates              R   N=          36
  1.27131137E+00  0.00000000E+00  0.00000000E+00 -1.27131137E+00  0.00000000E+00
  0.00000000E+00  2.34821716E+00  1.76652733E+00  0.00000000E+00  2.34821716E+00
 -1.76652733E+00  0.00000000E+00 -2.34821716E+00  1.76652733E+00  0.00000000E+00
 -2.34821716E+00 -1.76652733E+00  0.00000000E+00  1.27131137E+00  0.00000000E+00
  9.44863066E+00 -1.27131137E+00  0.00000000E+00  9.44863066E+00  2.34821716E+00
  1.24912409E+00  8.19950657E+00  2.34821716E+00 -1.24912409E+00  1.06977548E+01
 -2.34821716E+00  1.24912409E+00  8.19950657E+00 -2.34821716E+00 -1.24912409E+00
  1.06977548E+01
Force Field                                I                0
Int Atom Types                             I   N=          12
           0           0           0           0           0           0
           0           0           0           0           0           0
MM charges                                 R   N=          12
  0.00000000E+00  0.00000000E+00  0.00000000E+00  0.00000000E+00  0.00000000E+00
  0.00000000E+00  0.00000000E+00  0.00000000E+00  0.00000000E+00  0.00000000E+00
  0.00000000E+00  0.00000000E+00
Integer atomic weights                     I   N=          12
          12          12           1           1           1           1
          12          12           1           1           1           1
Real atomic weights                        R   N=          12
  1.20000000E+01  1.20000000E+01  1.00782504E+00  1.00782504E+00  1.00782504E+00
  1.00782504E+00  1.20000000E+01  1.20000000E+01  1.00782504E+00  1.00782504E+00
  1.00782504E+00  1.00782504E+00
Atom fragment info                         I   N=          12
           0           0           0           0           0           0
           0           0           0           0           0           0
Atom residue num                           I   N=          12
           0           0           0           0           0           0
           0           0           0           0           0           0
Nuclear spins                              I   N=          12
           0           0           1           1           1           1
           0           0           1           1           1           1
Nuclear ZEff                               R   N=          12
 -3.60000000E+00 -3.60000000E+00 -1.00000000E+00 -1.00000000E+00 -1.00000000E+00
 -1.00000000E+00 -3.60000000E+00 -3.60000000E+00 -1.00000000E+00 -1.00000000E+00
 -1.00000000E+00 -1.00000000E+00
Nuclear ZNuc                               R   N=          12
  6.00000000E+00  6.00000000E+00  1.00000000E+00  1.00000000E+00  1.00000000E+00
  1.00000000E+00  6.00000000E+00  6.00000000E+00  1.00000000E+00  1.00000000E+00
  1.00000000E+00  1.00000000E+00
Nuclear QMom                               R   N=          12
  0.00000000E+00  0.00000000E+00  0.00000000E+00  0.00000000E+00  0.00000000E+00
  0.00000000E+00  0.00000000E+00  0.00000000E+00  0.00000000E+00  0.00000000E+00
  0.00000000E+00  0.00000000E+00
Nuclear GFac                               R   N=          12
  0.00000000E+00  0.00000000E+00  2.79284600E+00  2.79284600E+00  2.79284600E+00
  2.79284600E+00  0.00000000E+00  0.00000000E+00  2.79284600E+00  2.79284600E+00
  2.79284600E+00  2.79284600E+00
MicOpt                                     I   N=          12
          -1          -1          -1          -1          -1          -1
          -1          -1          -1          -1          -1          -1
Number of contracted shells                I               36
Number of primitive shells                 I               80
Pure/Cartesian d shells                    I                1
Pure/Cartesian f shells                    I                0
Highest angular momentum                   I                2
Largest degree of contraction              I                6
Shell types                                I   N=          36
           0          -1          -1          -1           2           0
          -1          -1          -1           2           0           0
           0           0           0           0           0           0
           0          -1          -1          -1           2           0
          -1          -1          -1           2           0           0
           0           0           0           0           0           0
Number of primitives per shell             I   N=          36
           6           3           1           1           1           6
           3           1           1           1           3           1
           3           1           3           1           3           1
           6           3           1           1           1           6
           3           1           1           1           3           1
           3           1           3           1           3           1
Shell to atom map                          I   N=          36
           1           1           1           1           1           2
           2           2           2           2           3           3
           4           4           5           5           6           6
           7           7           7           7           7           8
           8           8           8           8           9           9
          10          10          11          11          12          12
Primitive exponents                        R   N=          80
  3.04752488E+03  4.57369518E+02  1.03948685E+02  2.92101553E+01  9.28666296E+00
  3.16392696E+00  7.86827235E+00  1.88128854E+00  5.44249258E-01  1.68714478E-01
  4.38000000E-02  8.00000000E-01  3.04752488E+03  4.57369518E+02  1.03948685E+02
  2.92101553E+01  9.28666296E+00  3.16392696E+00  7.86827235E+00  1.88128854E+00
  5.44249258E-01  1.68714478E-01  4.38000000E-02  8.00000000E-01  1.87311370E+01
  2.82539436E+00  6.40121692E-01  1.61277759E-01  1.87311370E+01  2.82539436E+00
  6.40121692E-01  1.61277759E-01  1.87311370E+01  2.82539436E+00  6.40121692E-01
  1.61277759E-01  1.87311370E+01  2.82539436E+00  6.40121692E-01  1.61277759E-01
  3.04752488E+03  4.57369518E+02  1.03948685E+02  2.92101553E+01  9.28666296E+00
  3.16392696E+00  7.86827235E+00  1.88128854E+00  5.44249258E-01  1.68714478E-01
  4.38000000E-02  8.00000000E-01  3.04752488E+03  4.57369518E+02  1.03948685E+02
  2.92101553E+01  9.28666296E+00  3.16392696E+00  7.86827235E+00  1.88128854E+00
  5.44249258E-01  1.68714478E-01  4.38000000E-02  8.00000000E-01  1.87311370E+01
  2.82539436E+00  6.40121692E-01  1.61277759E-01  1.87311370E+01  2.82539436E+00
  6.40121692E-01  1.61277759E-01  1.87311370E+01  2.82539436E+00  6.40121692E-01
  1.61277759E-01  1.87311370E+01  2.82539436E+00  6.40121692E-01  1.61277759E-01
Contraction coefficients                   R   N=          80
  1.83473713E-03  1.40373228E-02  6.88426223E-02  2.32184443E-01  4.67941348E-01
  3.62311985E-01 -1.19332420E-01 -1.60854152E-01  1.14345644E+00  1.00000000E+00
  1.00000000E+00  1.00000000E+00  1.83473713E-03  1.40373228E-02  6.88426223E-02
  2.32184443E-01  4.67941348E-01  3.62311985E-01 -1.19332420E-01 -1.60854152E-01
  1.14345644E+00  1.00000000E+00  1.00000000E+00  1.00000000E+00  3.34946043E-02
  2.34726953E-01  8.13757326E-01  1.00000000E+00  3.34946043E-02  2.34726953E-01
  8.13757326E-01  1.00000000E+00  3.34946043E-02  2.34726953E-01  8.13757326E-01
  1.00000000E+00  3.34946043E-02  2.34726953E-01  8.13757326E-01  1.00000000E+00
  1.83473713E-03  1.40373228E-02  6.88426223E-02  2.32184443E-01  4.67941348E-01
  3.62311985E-01 -1.19332420E-01 -1.60854152E-01  1.14345644E+00  1.00000000E+00
  1.00000000E+00  1.00000000E+00  1.83473713E-03  1.40373228E-02  6.88426223E-02
  2.32184443E-01  4.67941348E-01  3.62311985E-01 -1.19332420E-01 -1.60854152E-01
  1.14345644E+00  1.00000000E+00  1.00000000E+00  1.00000000E+00  3.34946043E-02
  2.34726953E-01  8.13757326E-01  1.00000000E+00  3.34946043E-02  2.34726953E-01
  8.13757326E-01  1.00000000E+00  3.34946043E-02  2.34726953E-01  8.13757326E-01
  1.00000000E+00  3.34946043E-02  2.34726953E-01  8.13757326E-01  1.00000000E+00
P(S=P) Contraction coefficients            R   N=          80
  0.00000000E+00  0.00000000E+00  0.00000000E+00  0.00000000E+00  0.00000000E+00
  0.00000000E+00  6.89990666E-02  3.16423961E-01  7.44308291E-01  1.00000000E+00
  1.00000000E+00  0.00000000E+00  0.00000000E+00  0.00000000E+00  0.00000000E+00
  0.00000000E+00  0.00000000E+00  0.00000000E+00  6.89990666E-02  3.16423961E-01
  7.44308291E-01  1.00000000E+00  1.00000000E+00  0.00000000E+00  0.00000000E+00
  0.00000000E+00  0.00000000E+00  0.00000000E+00  0.00000000E+00  0.00000000E+00
  0.00000000E+00  0.00000000E+00  0.00000000E+00  0.00000000E+00  0.00000000E+00
  0.00000000E+00  0.00000000E+00  0.00000000E+00  0.00000000E+00  0.00000000E+00
  0.00000000E+00  0.00000000E+00  0.00000000E+00  0.00000000E+00  0.00000000E+00
  0.00000000E+00  6.89990666E-02  3.16423961E-01  7.44308291E-01  1.00000000E+00
  1.00000000E+00  0.00000000E+00  0.00000000E+00  0.00000000E+00  0.00000000E+00
  0.00000000E+00  0.00000000E+00  0.00000000E+00  6.89990666E-02  3.16423961E-01
  7.44308291E-01  1.00000000E+00  1.00000000E+00  0.00000000E+00  0.00000000E+00
  0.00000000E+00  0.00000000E+00  0.00000000E+00  0.00000000E+00  0.00000000E+00
  0.00000000E+00  0.00000000E+00  0.00000000E+00  0.00000000E+00  0.00000000E+00
  0.00000000E+00  0.00000000E+00  0.00000000E+00  0.00000000E+00  0.00000000E+00
Coordinates of each shell                  R   N=         108
  1.27131137E+00  0.00000000E+00  0.00000000E+00  1.27131137E+00  0.00000000E+00
  0.00000000E+00  1.27131137E+00  0.00000000E+00  0.00000000E+00  1.27131137E+00
  0.00000000E+00  0.00000000E+00  1.27131137E+00  0.00000000E+00  0.00000000E+00
 -1.27131137E+00  0.00000000E+00  0.00000000E+00 -1.27131137E+00  0.00000000E+00
  0.00000000E+00 -1.27131137E+00  0.00000000E+00  0.00000000E+00 -1.27131137E+00
  0.00000000E+00  0.00000000E+00 -1.27131137E+00  0.00000000E+00  0.00000000E+00
  2.34821716E+00  1.76652733E+00  0.00000000E+00  2.34821716E+00  1.76652733E+00
  0.00000000E+00  2.34821716E+00 -1.76652733E+00  0.00000000E+00  2.34821716E+00
 -1.76652733E+00  0.00000000E+00 -2.34821716E+00  1.76652733E+00  0.00000000E+00
 -2.34821716E+00  1.76652733E+00  0.00000000E+00 -2.34821716E+00 -1.76652733E+00
  0.00000000E+00 -2.34821716E+00 -1.76652733E+00  0.00000000E+00  1.27131137E+00
  0.00000000E+00  9.44863066E+00  1.27131137E+00  0.00000000E+00  9.44863066E+00
  1.27131137E+00  0.00000000E+00  9.44863066E+00  1.27131137E+00  0.00000000E+00
  9.44863066E+00  1.27131137E+00  0.00000000E+00  9.44863066E+00 -1.27131137E+00
  0.00000000E+00  9.44863066E+00 -1.27131137E+00  0.00000000E+00  9.44863066E+00
 -1.27131137E+00  0.00000000E+00  9.44863066E+00 -1.27131137E+00  0.00000000E+00
  9.44863066E+00 -1.27131137E+00  0.00000000E+00  9.44863066E+00  2.34821716E+00
  1.24912409E+00  8.19950657E+00  2.34821716E+00  1.24912409E+00  8.19950657E+00
  2.34821716E+00 -1.24912409E+00  1.06977548E+01  2.34821716E+00 -1.24912409E+00
  1.06977548E+01 -2.34821716E+00  1.24912409E+00  8.19950657E+00 -2.34821716E+00
  1.24912409E+00  8.19950657E+00 -2.34821716E+00 -1.24912409E+00  1.06977548E+01
 -2.34821716E+00 -1.24912409E+00  1.06977548E+01
Constraint Structure                       R   N=          36
  1.27131137E+00  0.00000000E+00  0.00000000E+00 -1.27131137E+00  0.00000000E+00
  0.00000000E+00  2.34821716E+00  1.76652733E+00  0.00000000E+00  2.34821716E+00
 -1.76652733E+00  0.00000000E+00 -2.34821716E+00  1.76652733E+00  0.00000000E+00
 -2.34821716E+00 -1.76652733E+00  0.00000000E+00  1.27131137E+00  0.00000000E+00
  9.44863066E+00 -1.27131137E+00  0.00000000E+00  9.44863066E+00  2.34821716E+00
  1.24912409E+00  8.19950657E+00  2.34821716E+00 -1.24912409E+00  1.06977548E+01
 -2.34821716E+00  1.24912409E+00  8.19950657E+00 -2.34821716E+00 -1.24912409E+00
  1.06977548E+01
Num ILSW                                   I              100
ILSW                                       I   N=         100
           0           1           0           0           2           0
           0           0           0           0         402          -1
           5           0           0           0           0           0
           0           0           1           0           0           0
           1           1           0           0           0           0
           0           0      100000           0          -1           0
           0           0           0           0           0           0
           0           0           0           1           0           0
           0           0           1           0           0           0
           0           0           4          41           0           0
           0           0           5           0           0           0
           0           0           0           0           0           0
           0           0           0           0           0           0
           0           0           0           0           0           0
           0           0           0           0           0           0
           0           0           0           0           0           0
           0           0           0           0
Num RLSW                                   I               41
RLSW                                       R   N=          41
  8.00000000E-01  7.20000000E-01  1.00000000E+00  8.10000000E-01  2.00000000E-01
  0.00000000E+00  0.00000000E+00  1.00000000E+00  0.00000000E+00  0.00000000E+00
  0.00000000E+00  0.00000000E+00  1.00000000E+00  0.00000000E+00  0.00000000E+00
  0.00000000E+00  0.00000000E+00  1.00000000E+00  0.00000000E+00  0.00000000E+00
  0.00000000E+00  0.00000000E+00  1.00000000E+00  0.00000000E+00  0.00000000E+00
  0.00000000E+00  0.00000000E+00  1.00000000E+00  0.00000000E+00  0.00000000E+00
  0.00000000E+00  0.00000000E+00  1.00000000E+00  0.00000000E+00  0.00000000E+00
  0.00000000E+00  0.00000000E+00  0.00000000E+00  1.00000000E+00  1.00000000E+00
  0.00000000E+00
MxBond                                     I                3
NBond                                      I   N=          12
           3           3           1           1           1           1
           3           3           1           1           1           1
IBond                                      I   N=          36
           2           3           4           1           5           6
           1           0           0           1           0           0
           2           0           0           2           0           0
           8           9          10           7          11          12
           7           0           0           7           0           0
           8           0           0           8           0           0
RBond                                      R   N=          36
  2.00000000E+00  1.00000000E+00  1.00000000E+00  2.00000000E+00  1.00000000E+00
  1.00000000E+00  1.00000000E+00  0.00000000E+00  0.00000000E+00  1.00000000E+00
  0.00000000E+00  0.00000000E+00  1.00000000E+00  0.00000000E+00  0.00000000E+00
  1.00000000E+00  0.00000000E+00  0.00000000E+00  2.00000000E+00  1.00000000E+00
  1.00000000E+00  2.00000000E+00  1.00000000E+00  1.00000000E+00  1.00000000E+00
  0.00000000E+00  0.00000000E+00  1.00000000E+00  0.00000000E+00  0.00000000E+00
  1.00000000E+00  0.00000000E+00  0.00000000E+00  1.00000000E+00  0.00000000E+00
  0.00000000E+00
Virial Ratio                               R      2.011864518374718E+00
SCF Energy                                 R     -1.571857844088514E+02
Total Energy                               R     -1.571857844088514E+02
RMS Density                                R      3.909097118372216E-09
External E-field                           R   N=          35
  0.00000000E+00  0.00000000E+00  0.00000000E+00  0.00000000E+00  0.00000000E+00
  0.00000000E+00  0.00000000E+00  0.00000000E+00  0.00000000E+00  0.00000000E+00
  0.00000000E+00  0.00000000E+00  0.00000000E+00  0.00000000E+00  0.00000000E+00
  0.00000000E+00  0.00000000E+00  0.00000000E+00  0.00000000E+00  0.00000000E+00
  0.00000000E+00  0.00000000E+00  0.00000000E+00  0.00000000E+00  0.00000000E+00
  0.00000000E+00  0.00000000E+00  0.00000000E+00  0.00000000E+00  0.00000000E+00
  0.00000000E+00  0.00000000E+00  0.00000000E+00  0.00000000E+00  0.00000000E+00
IOpCl                                      I                0
IROHF                                      I                0
Alpha Orbital Energies                     R   N=          92
 -1.01981301E+01 -1.01973233E+01 -1.01960996E+01 -1.01952922E+01 -7.61533157E-01
 -7.59442393E-01 -5.84013150E-01 -5.81994549E-01 -4.72186948E-01 -4.70079233E-01
 -4.22208746E-01 -4.20188905E-01 -3.62751444E-01 -3.60692921E-01 -2.76171114E-01
 -2.72486221E-01 -1.26358934E-02 -4.52499535E-03  1.52222379E-02  2.46229628E-02
  3.40145589E-02  4.20602436E-02  4.45510537E-02  6.04353136E-02  7.55541647E-02
  7.96090696E-02  8.32402862E-02  9.49974454E-02  1.01451487E-01  1.20865538E-01
  1.31997541E-01  1.49322538E-01  1.55049159E-01  1.73574266E-01  1.75952101E-01
  1.94051122E-01  1.98963017E-01  2.24899190E-01  2.47024677E-01  2.73651164E-01
  3.45132997E-01  3.47387368E-01  3.48342774E-01  3.67067711E-01  5.78075793E-01
  5.86992480E-01  6.58362092E-01  6.64065535E-01  6.78950966E-01  7.05334598E-01
  7.24984491E-01  7.30704012E-01  7.59074223E-01  7.81918493E-01  8.34133271E-01
  8.65950088E-01  9.00506375E-01  9.12892984E-01  9.36727533E-01  9.44419636E-01
  9.71010409E-01  9.95585306E-01  1.01281589E+00  1.03444241E+00  1.16572776E+00
  1.17097796E+00  1.22027533E+00  1.22517132E+00  1.44870017E+00  1.45070233E+00
  1.53961190E+00  1.54421852E+00  1.81707827E+00  1.81973600E+00  1.88603648E+00
  1.88894837E+00  2.00068885E+00  2.00554549E+00  2.10895385E+00  2.11133601E+00
  2.29511061E+00  2.29805212E+00  2.37136802E+00  2.37340152E+00  2.66556002E+00
  2.66816206E+00  2.70029885E+00  2.70900570E+00  4.11826579E+00  4.13131898E+00
  4.25194578E+00  4.25868496E+00
Alpha MO coefficients                      R   N=        8464
  7.01851509E-01  3.45290440E-02  1.68486898E-04  3.48956290E-06  1.68727998E-05
 -6.26598493E-03 -2.37694857E-04 -2.16261050E-06 -5.45745061E-05  7.64555272E-04
 -8.11853449E-04 -6.95117185E-08  1.10561832E-04 -6.66087987E-03 -6.68152399E-03
 -6.89244657E-03  2.12242489E-07 -2.58712365E-06  1.16478900E-07  7.01851509E-01
  3.45290441E-02 -1.68486898E-04  3.48956290E-06  1.68727998E-05 -6.26598493E-03
  2.37694856E-04 -2.16261050E-06 -5.45745061E-05  7.64555279E-04  8.11853451E-04
 -6.95117197E-08  1.10561832E-04 -6.66087987E-03 -6.68152399E-03 -6.89244657E-03
 -2.12242489E-07  2.58712365E-06  1.16478901E-07 -1.84403437E-04  8.98704776E-04
 -1.83236234E-04  8.95764408E-04 -1.84403437E-04  8.98704776E-04 -1.83236234E-04
  8.95764408E-04 -1.58188701E-04 -3.06244094E-05 -3.91904607E-06 -1.16901870E-06
 -8.25600157E-06  1.43878414E-04  1.72667872E-05 -3.88089060E-06  4.23418208E-06
 -1.53086790E-04  9.35229957E-05  1.08774990E-06  1.10572071E-04 -8.30217877E-06
 -2.37084716E-06 -1.14931529E-05 -2.90201161E-06  1.74001218E-06 -2.78909465E-07
 -1.58188699E-04 -3.06244092E-05  3.91904607E-06 -1.16901870E-06 -8.25600157E-06
  1.43878414E-04 -1.72667872E-05 -3.88089058E-06  4.23418207E-06 -1.53086790E-04
 -9.35229959E-05  1.08774991E-06  1.10572071E-04 -8.30217879E-06 -2.37084718E-06
 -1.14931529E-05  2.90201161E-06 -1.74001218E-06 -2.78909465E-07  8.13583153E-06
  1.01014836E-06 -1.13701354E-05  4.53676761E-06  8.13583153E-06  1.01014834E-06
 -1.13701354E-05  4.53676764E-06  7.02152938E-01  3.51995836E-02 -3.26339472E-04
  3.74381452E-06  4.05049542E-07 -1.29610672E-02  2.35248624E-03 -4.74005107E-06
 -5.81076191E-06  1.97703461E-02 -5.32995721E-03 -5.07940095E-07  7.50891349E-06
 -6.23803359E-03 -6.50630727E-03 -6.75389855E-03 -1.17647167E-07  4.92709959E-07
  1.21264519E-07 -7.02152938E-01 -3.51995836E-02 -3.26339472E-04 -3.74381451E-06
 -4.05049537E-07  1.29610672E-02  2.35248624E-03  4.74005107E-06  5.81076189E-06
 -1.97703461E-02 -5.32995721E-03  5.07940094E-07 -7.50891346E-06  6.23803359E-03
  6.50630726E-03  6.75389854E-03 -1.17647167E-07  4.92709960E-07 -1.21264519E-07
 -1.01294158E-04  1.16208313E-03 -1.01081269E-04  1.15854661E-03  1.01294158E-04
 -1.16208313E-03  1.01081269E-04 -1.15854661E-03  2.69563830E-05  2.68287987E-06
 -2.61986958E-07 -9.49699378E-06 -3.21589807E-06  6.37532083E-06  2.32201776E-05
  8.16136596E-05 -2.68411954E-05 -6.39439763E-04  1.83091206E-04  4.90904080E-05
 -8.03407958E-05  8.80838572E-07  2.08516426E-06 -1.65644107E-07 -2.96635046E-06
 -1.41384231E-06  2.87144303E-07 -2.69563808E-05 -2.68287977E-06 -2.61986957E-07
  9.49699378E-06  3.21589806E-06 -6.37532081E-06  2.32201776E-05 -8.16136596E-05
  2.68411954E-05  6.39439763E-04  1.83091206E-04 -4.90904080E-05  8.03407958E-05
 -8.80838595E-07 -2.08516428E-06  1.65644082E-07 -2.96635046E-06 -1.41384231E-06
 -2.87144303E-07  1.65584914E-05 -1.28069232E-04 -1.81400324E-06  5.88092747E-05
 -1.65584914E-05  1.28069232E-04  1.81400324E-06 -5.88092747E-05  1.47020595E-04
 -2.00681351E-05  1.87690464E-05 -1.47463395E-06 -1.32889151E-05 -3.73336736E-05
 -1.26887304E-04 -7.97618383E-06  7.26056908E-05 -4.30232023E-04  1.58875456E-04
 -4.43826994E-05 -2.59048367E-04 -4.79321097E-06 -1.55970793E-05 -3.26706748E-07
  5.94872632E-07  4.53214888E-06 -1.52853298E-07  1.47020597E-04 -2.00681350E-05
 -1.87690464E-05 -1.47463396E-06 -1.32889151E-05 -3.73336734E-05  1.26887304E-04
 -7.97618368E-06  7.26056908E-05 -4.30232016E-04 -1.58875454E-04 -4.43826992E-05
 -2.59048366E-04 -4.79321099E-06 -1.55970793E-05 -3.26706780E-07 -5.94872631E-07
 -4.53214888E-06 -1.52853299E-07 -5.04765989E-05  3.56805805E-04 -2.87049339E-05
  2.56295178E-04 -5.04765989E-05  3.56805805E-04 -2.87049339E-05  2.56295178E-04
  7.01861890E-01  3.45623860E-02  1.74096492E-04 -1.24941259E-05 -1.66193919E-05
 -6.47380627E-03 -2.73365829E-04  5.65886199E-05  4.74835137E-05  8.93083534E-04
 -8.68548373E-04  3.27302128E-05 -2.64754513E-04 -6.64175023E-03 -6.77019871E-03
 -6.76262622E-03  1.58488267E-06  3.48230441E-06 -1.19841872E-04  7.01861888E-01
  3.45623860E-02 -1.74096493E-04 -1.24941259E-05 -1.66193919E-05 -6.47380625E-03
  2.73365833E-04  5.65886198E-05  4.74835138E-05  8.93083499E-04  8.68548364E-04
  3.27302127E-05 -2.64754512E-04 -6.64175022E-03 -6.77019870E-03 -6.76262621E-03
 -1.58488268E-06 -3.48230442E-06 -1.19841872E-04 -1.55261132E-04  7.91688935E-04
 -2.06701811E-04  1.06222435E-03 -1.55261132E-04  7.91688933E-04 -2.06701811E-04
  1.06222434E-03 -2.52592197E-05  2.30924005E-06  2.07955859E-07  6.86653943E-06
  1.70716825E-07 -1.38663909E-04  4.29219407E-05 -8.75028396E-05  1.30632224E-05
 -4.84087019E-03  1.19993729E-03 -1.46126962E-04 -3.25023002E-04 -3.54419800E-06
  3.51029234E-06  6.75228361E-06  8.04038750E-07  1.65606233E-06 -6.84642596E-08
  2.52592218E-05 -2.30923991E-06  2.07955887E-07 -6.86653943E-06 -1.70716805E-07
  1.38663909E-04  4.29219405E-05  8.75028397E-05 -1.30632225E-05  4.84087019E-03
  1.19993729E-03  1.46126962E-04  3.25023003E-04  3.54419799E-06 -3.51029233E-06
 -6.75228363E-06  8.04038751E-07  1.65606234E-06  6.84642582E-08 -2.37678574E-05
  2.41503242E-04 -1.57926920E-05  7.09418214E-05  2.37678575E-05 -2.41503243E-04
  1.57926920E-05 -7.09418218E-05  7.02155044E-01  3.52034599E-02 -3.21843646E-04
 -9.23914572E-06  4.85465450E-06 -1.29311230E-02  2.27694117E-03  8.24832353E-05
 -4.17454192E-05  2.17535937E-02 -5.79217616E-03  6.63105097E-05 -3.33889944E-04
 -6.22485127E-03 -6.62823523E-03 -6.62676411E-03 -1.24323688E-06 -6.05775741E-07
 -1.42144088E-04 -7.02155046E-01 -3.52034599E-02 -3.21843645E-04  9.23914574E-06
 -4.85465448E-06  1.29311230E-02  2.27694117E-03 -8.24832354E-05  4.17454191E-05
 -2.17535937E-02 -5.79217617E-03 -6.63105098E-05  3.33889944E-04  6.22485128E-03
  6.62823524E-03  6.62676412E-03 -1.24323688E-06 -6.05775735E-07  1.42144088E-04
 -8.88967624E-05  1.03323563E-03 -9.59688179E-05  1.21675035E-03  8.88967626E-05
 -1.03323563E-03  9.59688182E-05 -1.21675035E-03 -1.59395546E-01  3.11048821E-01
 -1.00698304E-01  2.47209979E-04 -5.61924503E-05  2.33621013E-01 -4.23276208E-03
  2.13504115E-04 -1.17673709E-04  3.66716230E-03 -9.53613611E-04  4.55467211E-05
  1.70607634E-04  8.12258497E-03  2.58574733E-04 -1.65514179E-02 -2.21229875E-06
  9.13114652E-06  2.57507530E-05 -1.59395546E-01  3.11048821E-01  1.00698304E-01
  2.47209979E-04 -5.61924503E-05  2.33621013E-01  4.23276208E-03  2.13504115E-04
 -1.17673709E-04  3.66716230E-03  9.53613609E-04  4.55467212E-05  1.70607634E-04
  8.12258497E-03  2.58574733E-04 -1.65514179E-02  2.21229875E-06 -9.13114652E-06
  2.57507530E-05  8.40439607E-02  1.49579990E-02  8.37976288E-02  1.48772906E-02
  8.40439607E-02  1.49579990E-02  8.37976288E-02  1.48772906E-02 -6.43252238E-03
  1.24700248E-02 -3.98190220E-03  4.95962278E-05  8.11237688E-06  9.24404215E-03
 -4.18493264E-04 -1.84205385E-04 -1.35439532E-04 -1.93355619E-04  2.48224509E-04
 -8.44246079E-05  4.20425716E-04  3.15880486E-04 -3.51184934E-04 -3.47274870E-04
  7.03290925E-07 -7.33542658E-06 -3.84008105E-04 -6.43252238E-03  1.24700248E-02
  3.98190220E-03  4.95962278E-05  8.11237687E-06  9.24404215E-03  4.18493264E-04
 -1.84205385E-04 -1.35439532E-04 -1.93355618E-04 -2.48224509E-04 -8.44246079E-05
  4.20425716E-04  3.15880486E-04 -3.51184934E-04 -3.47274870E-04 -7.03290925E-07
  7.33542658E-06 -3.84008105E-04  3.31618119E-03  1.49968093E-03  3.39779238E-03
  5.50393773E-04  3.31618119E-03  1.49968093E-03  3.39779238E-03  5.50393773E-04
  6.51313097E-03 -1.26185509E-02  4.09319670E-03  1.02681999E-05  1.29893081E-04
 -9.37481778E-03  5.74227823E-04  4.52140408E-05 -2.79960130E-04  1.40127140E-03
 -2.94036144E-04  3.65664143E-04  9.91371485E-04 -3.24797262E-04  1.80569946E-05
  6.76366465E-04  7.36450734E-07 -1.04720781E-05 -4.18372907E-07  6.51313097E-03
 -1.26185509E-02 -4.09319670E-03  1.02681999E-05  1.29893081E-04 -9.37481778E-03
 -5.74227823E-04  4.52140409E-05 -2.79960130E-04  1.40127141E-03  2.94036144E-04
  3.65664143E-04  9.91371485E-04 -3.24797262E-04  1.80569946E-05  6.76366465E-04
 -7.36450734E-07  1.04720781E-05 -4.18372908E-07 -3.27174503E-03 -2.05250701E-03
 -3.36743297E-03 -1.34479754E-03 -3.27174503E-03 -2.05250701E-03 -3.36743297E-03
 -1.34479754E-03 -1.59431829E-01  3.10921777E-01 -1.00657127E-01 -7.30385611E-05
  3.56749533E-04  2.34224342E-01 -4.23653197E-03 -1.81277380E-04  2.14807489E-04
  2.45907274E-03 -5.09385363E-04 -1.44102788E-04  9.52725091E-04  8.09199213E-03
 -8.15515117E-03 -8.21956705E-03 -1.16602487E-05 -1.51832666E-05 -9.69465253E-03
 -1.59431829E-01  3.10921777E-01  1.00657127E-01 -7.30385611E-05  3.56749533E-04
  2.34224342E-01  4.23653197E-03 -1.81277380E-04  2.14807489E-04  2.45907273E-03
  5.09385361E-04 -1.44102788E-04  9.52725091E-04  8.09199213E-03 -8.15515117E-03
 -8.21956705E-03  1.16602487E-05  1.51832666E-05 -9.69465253E-03  8.36997650E-02
  1.56750932E-02  8.40670763E-02  1.49594195E-02  8.36997650E-02  1.56750932E-02
  8.40670763E-02  1.49594195E-02 -1.23615862E-01  2.49107225E-01  1.70198291E-01
  3.28788640E-04 -2.81978080E-05  2.49690137E-01  6.25005767E-02  3.18770111E-04
 -1.88156381E-04 -3.00388044E-02  1.67076659E-02  1.86828198E-04  8.90883763E-04
 -8.40290567E-03  1.36145922E-02 -1.15162378E-02  3.79529516E-05  2.27240985E-07
  2.27057366E-05  1.23615862E-01 -2.49107225E-01  1.70198291E-01 -3.28788640E-04
  2.81978080E-05 -2.49690137E-01  6.25005767E-02 -3.18770111E-04  1.88156381E-04
  3.00388044E-02  1.67076659E-02 -1.86828198E-04 -8.90883763E-04  8.40290567E-03
 -1.36145922E-02  1.15162378E-02  3.79529516E-05  2.27240985E-07 -2.27057366E-05
  1.45712394E-01  5.86081286E-02  1.45208212E-01  5.81390590E-02 -1.45712394E-01
 -5.86081286E-02 -1.45208212E-01 -5.81390590E-02 -6.88623247E-03  1.38551489E-02
  9.46679282E-03  1.07267067E-04 -6.24457283E-05  1.36333971E-02  3.36459725E-03
 -5.64800731E-04  1.25375943E-04 -4.29459459E-03  1.15219588E-03 -3.76656513E-04
  1.81410487E-03 -4.77401396E-04  5.03813093E-05  5.39305208E-05  1.58388914E-05
 -1.95580871E-06 -8.04199673E-04  6.88623247E-03 -1.38551489E-02  9.46679282E-03
 -1.07267067E-04  6.24457283E-05 -1.36333971E-02  3.36459725E-03  5.64800731E-04
 -1.25375943E-04  4.29459459E-03  1.15219588E-03  3.76656513E-04 -1.81410487E-03
  4.77401396E-04 -5.03813093E-05 -5.39305208E-05  1.58388914E-05 -1.95580871E-06
  8.04199673E-04  8.09692203E-03  4.54478781E-03  8.02521235E-03  2.98534310E-03
 -8.09692203E-03 -4.54478781E-03 -8.02521235E-03 -2.98534310E-03  6.96140872E-03