A_B_90                                                                  
SP        RB3LYP                                                      6-31+G(d)           
Number of atoms                            I               12
Info1-9                                    I   N=           9
          23          23           0           0           0         110
           1          18        -502
Charge                                     I                0
Multiplicity                               I                1
Number of electrons                        I               32
Number of alpha electrons                  I               16
Number of beta electrons                   I               16
Number of basis functions                  I               92
Number of independent functions            I               92
Number of point charges in /Mol/           I                0
Number of translation vectors              I                0
Atomic numbers                             I   N=          12
           6           6           1           1           1           1
           6           6           1           1           1           1
Nuclear charges                            R   N=          12
  6.00000000E+00  6.00000000E+00  1.00000000E+00  1.00000000E+00  1.00000000E+00
  1.00000000E+00  6.00000000E+00  6.00000000E+00  1.00000000E+00  1.00000000E+00
  1.00000000E+00  1.00000000E+00
Current cartesian coordinates              R   N=          36
  1.27131137E+00  0.00000000E+00  0.00000000E+00 -1.27131137E+00  0.00000000E+00
  0.00000000E+00  2.34821716E+00  1.76652733E+00  0.00000000E+00  2.34821716E+00
 -1.76652733E+00  0.00000000E+00 -2.34821716E+00  1.76652733E+00  0.00000000E+00
 -2.34821716E+00 -1.76652733E+00  0.00000000E+00  1.27131137E+00  0.00000000E+00
  9.44863066E+00 -1.27131137E+00  0.00000000E+00  9.44863066E+00  2.34821716E+00
  0.00000000E+00  7.68210334E+00  2.34821716E+00  0.00000000E+00  1.12151580E+01
 -2.34821716E+00  0.00000000E+00  7.68210334E+00 -2.34821716E+00  0.00000000E+00
  1.12151580E+01
Force Field                                I                0
Int Atom Types                             I   N=          12
           0           0           0           0           0           0
           0           0           0           0           0           0
MM charges                                 R   N=          12
  0.00000000E+00  0.00000000E+00  0.00000000E+00  0.00000000E+00  0.00000000E+00
  0.00000000E+00  0.00000000E+00  0.00000000E+00  0.00000000E+00  0.00000000E+00
  0.00000000E+00  0.00000000E+00
Integer atomic weights                     I   N=          12
          12          12           1           1           1           1
          12          12           1           1           1           1
Real atomic weights                        R   N=          12
  1.20000000E+01  1.20000000E+01  1.00782504E+00  1.00782504E+00  1.00782504E+00
  1.00782504E+00  1.20000000E+01  1.20000000E+01  1.00782504E+00  1.00782504E+00
  1.00782504E+00  1.00782504E+00
Atom fragment info                         I   N=          12
           0           0           0           0           0           0
           0           0           0           0           0           0
Atom residue num                           I   N=          12
           0           0           0           0           0           0
           0           0           0           0           0           0
Nuclear spins                              I   N=          12
           0           0           1           1           1           1
           0           0           1           1           1           1
Nuclear ZEff                               R   N=          12
 -3.60000000E+00 -3.60000000E+00 -1.00000000E+00 -1.00000000E+00 -1.00000000E+00
 -1.00000000E+00 -3.60000000E+00 -3.60000000E+00 -1.00000000E+00 -1.00000000E+00
 -1.00000000E+00 -1.00000000E+00
Nuclear ZNuc                               R   N=          12
  6.00000000E+00  6.00000000E+00  1.00000000E+00  1.00000000E+00  1.00000000E+00
  1.00000000E+00  6.00000000E+00  6.00000000E+00  1.00000000E+00  1.00000000E+00
  1.00000000E+00  1.00000000E+00
Nuclear QMom                               R   N=          12
  0.00000000E+00  0.00000000E+00  0.00000000E+00  0.00000000E+00  0.00000000E+00
  0.00000000E+00  0.00000000E+00  0.00000000E+00  0.00000000E+00  0.00000000E+00
  0.00000000E+00  0.00000000E+00
Nuclear GFac                               R   N=          12
  0.00000000E+00  0.00000000E+00  2.79284600E+00  2.79284600E+00  2.79284600E+00
  2.79284600E+00  0.00000000E+00  0.00000000E+00  2.79284600E+00  2.79284600E+00
  2.79284600E+00  2.79284600E+00
MicOpt                                     I   N=          12
          -1          -1          -1          -1          -1          -1
          -1          -1          -1          -1          -1          -1
Number of contracted shells                I               36
Number of primitive shells                 I               80
Pure/Cartesian d shells                    I                1
Pure/Cartesian f shells                    I                0
Highest angular momentum                   I                2
Largest degree of contraction              I                6
Shell types                                I   N=          36
           0          -1          -1          -1           2           0
          -1          -1          -1           2           0           0
           0           0           0           0           0           0
           0          -1          -1          -1           2           0
          -1          -1          -1           2           0           0
           0           0           0           0           0           0
Number of primitives per shell             I   N=          36
           6           3           1           1           1           6
           3           1           1           1           3           1
           3           1           3           1           3           1
           6           3           1           1           1           6
           3           1           1           1           3           1
           3           1           3           1           3           1
Shell to atom map                          I   N=          36
           1           1           1           1           1           2
           2           2           2           2           3           3
           4           4           5           5           6           6
           7           7           7           7           7           8
           8           8           8           8           9           9
          10          10          11          11          12          12
Primitive exponents                        R   N=          80
  3.04752488E+03  4.57369518E+02  1.03948685E+02  2.92101553E+01  9.28666296E+00
  3.16392696E+00  7.86827235E+00  1.88128854E+00  5.44249258E-01  1.68714478E-01
  4.38000000E-02  8.00000000E-01  3.04752488E+03  4.57369518E+02  1.03948685E+02
  2.92101553E+01  9.28666296E+00  3.16392696E+00  7.86827235E+00  1.88128854E+00
  5.44249258E-01  1.68714478E-01  4.38000000E-02  8.00000000E-01  1.87311370E+01
  2.82539436E+00  6.40121692E-01  1.61277759E-01  1.87311370E+01  2.82539436E+00
  6.40121692E-01  1.61277759E-01  1.87311370E+01  2.82539436E+00  6.40121692E-01
  1.61277759E-01  1.87311370E+01  2.82539436E+00  6.40121692E-01  1.61277759E-01
  3.04752488E+03  4.57369518E+02  1.03948685E+02  2.92101553E+01  9.28666296E+00
  3.16392696E+00  7.86827235E+00  1.88128854E+00  5.44249258E-01  1.68714478E-01
  4.38000000E-02  8.00000000E-01  3.04752488E+03  4.57369518E+02  1.03948685E+02
  2.92101553E+01  9.28666296E+00  3.16392696E+00  7.86827235E+00  1.88128854E+00
  5.44249258E-01  1.68714478E-01  4.38000000E-02  8.00000000E-01  1.87311370E+01
  2.82539436E+00  6.40121692E-01  1.61277759E-01  1.87311370E+01  2.82539436E+00
  6.40121692E-01  1.61277759E-01  1.87311370E+01  2.82539436E+00  6.40121692E-01
  1.61277759E-01  1.87311370E+01  2.82539436E+00  6.40121692E-01  1.61277759E-01
Contraction coefficients                   R   N=          80
  1.83473713E-03  1.40373228E-02  6.88426223E-02  2.32184443E-01  4.67941348E-01
  3.62311985E-01 -1.19332420E-01 -1.60854152E-01  1.14345644E+00  1.00000000E+00
  1.00000000E+00  1.00000000E+00  1.83473713E-03  1.40373228E-02  6.88426223E-02
  2.32184443E-01  4.67941348E-01  3.62311985E-01 -1.19332420E-01 -1.60854152E-01
  1.14345644E+00  1.00000000E+00  1.00000000E+00  1.00000000E+00  3.34946043E-02
  2.34726953E-01  8.13757326E-01  1.00000000E+00  3.34946043E-02  2.34726953E-01
  8.13757326E-01  1.00000000E+00  3.34946043E-02  2.34726953E-01  8.13757326E-01
  1.00000000E+00  3.34946043E-02  2.34726953E-01  8.13757326E-01  1.00000000E+00
  1.83473713E-03  1.40373228E-02  6.88426223E-02  2.32184443E-01  4.67941348E-01
  3.62311985E-01 -1.19332420E-01 -1.60854152E-01  1.14345644E+00  1.00000000E+00
  1.00000000E+00  1.00000000E+00  1.83473713E-03  1.40373228E-02  6.88426223E-02
  2.32184443E-01  4.67941348E-01  3.62311985E-01 -1.19332420E-01 -1.60854152E-01
  1.14345644E+00  1.00000000E+00  1.00000000E+00  1.00000000E+00  3.34946043E-02
  2.34726953E-01  8.13757326E-01  1.00000000E+00  3.34946043E-02  2.34726953E-01
  8.13757326E-01  1.00000000E+00  3.34946043E-02  2.34726953E-01  8.13757326E-01
  1.00000000E+00  3.34946043E-02  2.34726953E-01  8.13757326E-01  1.00000000E+00
P(S=P) Contraction coefficients            R   N=          80
  0.00000000E+00  0.00000000E+00  0.00000000E+00  0.00000000E+00  0.00000000E+00
  0.00000000E+00  6.89990666E-02  3.16423961E-01  7.44308291E-01  1.00000000E+00
  1.00000000E+00  0.00000000E+00  0.00000000E+00  0.00000000E+00  0.00000000E+00
  0.00000000E+00  0.00000000E+00  0.00000000E+00  6.89990666E-02  3.16423961E-01
  7.44308291E-01  1.00000000E+00  1.00000000E+00  0.00000000E+00  0.00000000E+00
  0.00000000E+00  0.00000000E+00  0.00000000E+00  0.00000000E+00  0.00000000E+00
  0.00000000E+00  0.00000000E+00  0.00000000E+00  0.00000000E+00  0.00000000E+00
  0.00000000E+00  0.00000000E+00  0.00000000E+00  0.00000000E+00  0.00000000E+00
  0.00000000E+00  0.00000000E+00  0.00000000E+00  0.00000000E+00  0.00000000E+00
  0.00000000E+00  6.89990666E-02  3.16423961E-01  7.44308291E-01  1.00000000E+00
  1.00000000E+00  0.00000000E+00  0.00000000E+00  0.00000000E+00  0.00000000E+00
  0.00000000E+00  0.00000000E+00  0.00000000E+00  6.89990666E-02  3.16423961E-01
  7.44308291E-01  1.00000000E+00  1.00000000E+00  0.00000000E+00  0.00000000E+00
  0.00000000E+00  0.00000000E+00  0.00000000E+00  0.00000000E+00  0.00000000E+00
  0.00000000E+00  0.00000000E+00  0.00000000E+00  0.00000000E+00  0.00000000E+00
  0.00000000E+00  0.00000000E+00  0.00000000E+00  0.00000000E+00  0.00000000E+00
Coordinates of each shell                  R   N=         108
  1.27131137E+00  0.00000000E+00  0.00000000E+00  1.27131137E+00  0.00000000E+00
  0.00000000E+00  1.27131137E+00  0.00000000E+00  0.00000000E+00  1.27131137E+00
  0.00000000E+00  0.00000000E+00  1.27131137E+00  0.00000000E+00  0.00000000E+00
 -1.27131137E+00  0.00000000E+00  0.00000000E+00 -1.27131137E+00  0.00000000E+00
  0.00000000E+00 -1.27131137E+00  0.00000000E+00  0.00000000E+00 -1.27131137E+00
  0.00000000E+00  0.00000000E+00 -1.27131137E+00  0.00000000E+00  0.00000000E+00
  2.34821716E+00  1.76652733E+00  0.00000000E+00  2.34821716E+00  1.76652733E+00
  0.00000000E+00  2.34821716E+00 -1.76652733E+00  0.00000000E+00  2.34821716E+00
 -1.76652733E+00  0.00000000E+00 -2.34821716E+00  1.76652733E+00  0.00000000E+00
 -2.34821716E+00  1.76652733E+00  0.00000000E+00 -2.34821716E+00 -1.76652733E+00
  0.00000000E+00 -2.34821716E+00 -1.76652733E+00  0.00000000E+00  1.27131137E+00
  0.00000000E+00  9.44863066E+00  1.27131137E+00  0.00000000E+00  9.44863066E+00
  1.27131137E+00  0.00000000E+00  9.44863066E+00  1.27131137E+00  0.00000000E+00
  9.44863066E+00  1.27131137E+00  0.00000000E+00  9.44863066E+00 -1.27131137E+00
  0.00000000E+00  9.44863066E+00 -1.27131137E+00  0.00000000E+00  9.44863066E+00
 -1.27131137E+00  0.00000000E+00  9.44863066E+00 -1.27131137E+00  0.00000000E+00
  9.44863066E+00 -1.27131137E+00  0.00000000E+00  9.44863066E+00  2.34821716E+00
  0.00000000E+00  7.68210334E+00  2.34821716E+00  0.00000000E+00  7.68210334E+00
  2.34821716E+00  0.00000000E+00  1.12151580E+01  2.34821716E+00  0.00000000E+00
  1.12151580E+01 -2.34821716E+00  0.00000000E+00  7.68210334E+00 -2.34821716E+00
  0.00000000E+00  7.68210334E+00 -2.34821716E+00  0.00000000E+00  1.12151580E+01
 -2.34821716E+00  0.00000000E+00  1.12151580E+01
Constraint Structure                       R   N=          36
  1.27131137E+00  0.00000000E+00  0.00000000E+00 -1.27131137E+00  0.00000000E+00
  0.00000000E+00  2.34821716E+00  1.76652733E+00  0.00000000E+00  2.34821716E+00
 -1.76652733E+00  0.00000000E+00 -2.34821716E+00  1.76652733E+00  0.00000000E+00
 -2.34821716E+00 -1.76652733E+00  0.00000000E+00  1.27131137E+00  0.00000000E+00
  9.44863066E+00 -1.27131137E+00  0.00000000E+00  9.44863066E+00  2.34821716E+00
  0.00000000E+00  7.68210334E+00  2.34821716E+00  0.00000000E+00  1.12151580E+01
 -2.34821716E+00  0.00000000E+00  7.68210334E+00 -2.34821716E+00  0.00000000E+00
  1.12151580E+01
Num ILSW                                   I              100
ILSW                                       I   N=         100
           0           1           0           0           2           0
           0           0           0           0         402          -1
           5           0           0           0           0           0
           0           0           1           0           0           0
           1           1           0           0           0           0
           0           0      100000           0          -1           0
           0           0           0           0           0           0
           0           0           0           1           0           0
           0           0           1           0           0           0
           0           0           4          41           0           0
           0           0           5           0           0           0
           0           0           0           0           0           0
           0           0           0           0           0           0
           0           0           0           0           0           0
           0           0           0           0           0           0
           0           0           0           0           0           0
           0           0           0           0
Num RLSW                                   I               41
RLSW                                       R   N=          41
  8.00000000E-01  7.20000000E-01  1.00000000E+00  8.10000000E-01  2.00000000E-01
  0.00000000E+00  0.00000000E+00  1.00000000E+00  0.00000000E+00  0.00000000E+00
  0.00000000E+00  0.00000000E+00  1.00000000E+00  0.00000000E+00  0.00000000E+00
  0.00000000E+00  0.00000000E+00  1.00000000E+00  0.00000000E+00  0.00000000E+00
  0.00000000E+00  0.00000000E+00  1.00000000E+00  0.00000000E+00  0.00000000E+00
  0.00000000E+00  0.00000000E+00  1.00000000E+00  0.00000000E+00  0.00000000E+00
  0.00000000E+00  0.00000000E+00  1.00000000E+00  0.00000000E+00  0.00000000E+00
  0.00000000E+00  0.00000000E+00  0.00000000E+00  1.00000000E+00  1.00000000E+00
  0.00000000E+00
MxBond                                     I                3
NBond                                      I   N=          12
           3           3           1           1           1           1
           3           3           1           1           1           1
IBond                                      I   N=          36
           2           3           4           1           5           6
           1           0           0           1           0           0
           2           0           0           2           0           0
           8           9          10           7          11          12
           7           0           0           7           0           0
           8           0           0           8           0           0
RBond                                      R   N=          36
  2.00000000E+00  1.00000000E+00  1.00000000E+00  2.00000000E+00  1.00000000E+00
  1.00000000E+00  1.00000000E+00  0.00000000E+00  0.00000000E+00  1.00000000E+00
  0.00000000E+00  0.00000000E+00  1.00000000E+00  0.00000000E+00  0.00000000E+00
  1.00000000E+00  0.00000000E+00  0.00000000E+00  2.00000000E+00  1.00000000E+00
  1.00000000E+00  2.00000000E+00  1.00000000E+00  1.00000000E+00  1.00000000E+00
  0.00000000E+00  0.00000000E+00  1.00000000E+00  0.00000000E+00  0.00000000E+00
  1.00000000E+00  0.00000000E+00  0.00000000E+00  1.00000000E+00  0.00000000E+00
  0.00000000E+00
Virial Ratio                               R      2.011855903973677E+00
SCF Energy                                 R     -1.571861135049324E+02
Total Energy                               R     -1.571861135049324E+02
RMS Density                                R      4.019889870322344E-09
External E-field                           R   N=          35
  0.00000000E+00  0.00000000E+00  0.00000000E+00  0.00000000E+00  0.00000000E+00
  0.00000000E+00  0.00000000E+00  0.00000000E+00  0.00000000E+00  0.00000000E+00
  0.00000000E+00  0.00000000E+00  0.00000000E+00  0.00000000E+00  0.00000000E+00
  0.00000000E+00  0.00000000E+00  0.00000000E+00  0.00000000E+00  0.00000000E+00
  0.00000000E+00  0.00000000E+00  0.00000000E+00  0.00000000E+00  0.00000000E+00
  0.00000000E+00  0.00000000E+00  0.00000000E+00  0.00000000E+00  0.00000000E+00
  0.00000000E+00  0.00000000E+00  0.00000000E+00  0.00000000E+00  0.00000000E+00
IOpCl                                      I                0
IROHF                                      I                0
Alpha Orbital Energies                     R   N=          92
 -1.02002315E+01 -1.01994247E+01 -1.01957777E+01 -1.01949694E+01 -7.63681476E-01
 -7.59164058E-01 -5.86028722E-01 -5.81671662E-01 -4.74162396E-01 -4.69642014E-01
 -4.24253705E-01 -4.19887704E-01 -3.64665882E-01 -3.60247543E-01 -2.77730362E-01
 -2.73219095E-01 -1.24757785E-02 -7.47638496E-03  1.27255679E-02  2.31140473E-02
  3.25149750E-02  4.33707242E-02  4.37226674E-02  6.00403933E-02  7.70631244E-02
  7.73101293E-02  8.63751579E-02  9.23353384E-02  1.03057200E-01  1.18367807E-01
  1.33161891E-01  1.43702946E-01  1.50663422E-01  1.67672800E-01  1.77040844E-01
  1.91114179E-01  1.97039784E-01  2.38251632E-01  2.38820650E-01  2.74804939E-01
  3.43602520E-01  3.44986333E-01  3.51090965E-01  3.70768156E-01  5.78610225E-01
  5.84363662E-01  6.57278275E-01  6.65271634E-01  6.80063522E-01  7.01611761E-01
  7.22928720E-01  7.26663565E-01  7.55519630E-01  7.87667967E-01  8.29211137E-01
  8.66797859E-01  9.00251663E-01  9.09488269E-01  9.37283880E-01  9.41867606E-01
  9.53891580E-01  9.90131645E-01  1.05356823E+00  1.05893014E+00  1.16291949E+00
  1.17696020E+00  1.21824877E+00  1.22774541E+00  1.44670655E+00  1.45058212E+00
  1.53741829E+00  1.54198856E+00  1.81490236E+00  1.81943482E+00  1.88385801E+00
  1.89126230E+00  1.99849810E+00  2.00884644E+00  2.10700593E+00  2.11168113E+00
  2.29272844E+00  2.29885617E+00  2.36936202E+00  2.37295547E+00  2.66354539E+00
  2.66912767E+00  2.69877784E+00  2.70920854E+00  4.11610153E+00  4.15483139E+00
  4.24948398E+00  4.27147520E+00
Alpha MO coefficients                      R   N=        8464
  7.01851915E-01  3.45315457E-02  1.66025271E-04 -6.62257308E-16  2.15012757E-05
 -6.26593820E-03 -2.31419282E-04  4.62951707E-15 -6.28342414E-05  7.77720342E-04
 -8.17209617E-04  1.81384913E-15  1.20863343E-04 -6.66065818E-03 -6.68039994E-03
 -6.89190778E-03 -3.46500778E-16 -2.82682569E-06  4.50563604E-16  7.01851915E-01
  3.45315457E-02 -1.66025270E-04  1.67787974E-16  2.15012757E-05 -6.26593822E-03
  2.31419279E-04 -5.31256425E-15 -6.28342414E-05  7.77720367E-04  8.17209624E-04
 -1.94730215E-15  1.20863343E-04 -6.66065819E-03 -6.68039995E-03 -6.89190779E-03
  3.69096807E-16  2.82682569E-06 -1.61722568E-17 -1.81539673E-04  8.85124716E-04
 -1.81539673E-04  8.85124716E-04 -1.81539674E-04  8.85124717E-04 -1.81539674E-04
  8.85124717E-04 -1.57905988E-04 -4.68962611E-05 -1.36420451E-05 -6.59110001E-17
 -7.23427459E-06  3.08318782E-04  8.59254872E-05  2.58814253E-16  2.05405281E-06
 -1.12442253E-04  9.77580006E-05 -6.59331076E-16  1.16808978E-04 -1.95526033E-05
 -2.06894401E-05 -1.35432588E-05  1.31263175E-17  2.22803838E-06  9.06071736E-16
 -1.57905987E-04 -4.68962610E-05  1.36420451E-05  1.22414105E-16 -7.23427459E-06
  3.08318782E-04 -8.59254873E-05 -3.51300966E-16  2.05405278E-06 -1.12442253E-04
 -9.77580007E-05  8.81754671E-16  1.16808978E-04 -1.95526033E-05 -2.06894401E-05
 -1.35432588E-05 -1.39101822E-16 -2.22803838E-06 -1.92843745E-16  1.43495919E-05
 -1.19702746E-04 -2.67567456E-06 -1.14938704E-04  1.43495919E-05 -1.19702746E-04
 -2.67567457E-06 -1.14938704E-04  7.02152846E-01  3.51998273E-02 -3.28676725E-04
  2.79364813E-16  2.90789337E-06 -1.29540062E-02  2.35159862E-03 -3.51012627E-15
 -9.19382069E-06  1.99620077E-02 -5.37675573E-03 -2.89611812E-15  2.33209689E-05
 -6.23691003E-03 -6.50676311E-03 -6.75423039E-03 -1.38663486E-15  3.85041517E-07
  9.58685193E-17 -7.02152845E-01 -3.51998273E-02 -3.28676725E-04 -2.08379052E-16
 -2.90789334E-06  1.29540062E-02  2.35159862E-03  5.91803998E-15  9.19382060E-06
 -1.99620077E-02 -5.37675573E-03  6.98383477E-15 -2.33209688E-05  6.23691002E-03
  6.50676310E-03  6.75423038E-03 -1.79677052E-15  3.85041522E-07  1.24002090E-16
 -9.98001669E-05  1.15192490E-03 -9.98001669E-05  1.15192490E-03  9.98001666E-05
 -1.15192490E-03  9.98001666E-05 -1.15192490E-03  7.88927091E-06 -1.57098081E-06
 -1.60950757E-07  1.31172416E-18 -2.51422336E-06  1.99104315E-05  2.71469479E-05
 -4.08141854E-16 -2.64211824E-05 -7.21960052E-04  2.02490474E-04  1.05958123E-15
 -7.12340565E-05  1.54729030E-07  6.81099627E-07  1.31463178E-06  2.23029330E-16
 -1.64672727E-07 -1.55159995E-18 -7.88926981E-06  1.57098081E-06 -1.60950739E-07
 -2.20771711E-16  2.51422335E-06 -1.99104311E-05  2.71469478E-05  7.64373218E-16
  2.64211824E-05  7.21960052E-04  2.02490473E-04 -1.70595252E-15  7.12340567E-05
 -1.54729070E-07 -6.81099669E-07 -1.31463181E-06  3.11636863E-16 -1.64672729E-07
 -1.79284392E-16  1.22846228E-05 -1.04256288E-04 -7.11426115E-06  3.21824908E-05
 -1.22846228E-05  1.04256288E-04  7.11426114E-06 -3.21824910E-05  1.36559878E-04
 -4.07375147E-05  3.09382113E-05 -3.25563101E-17 -3.54596924E-05 -4.47163645E-05
 -1.98132589E-04 -9.01442353E-16  1.45884961E-04 -6.47828029E-04  2.27254598E-04
 -4.50746458E-16 -4.04347053E-04 -9.98469455E-06 -2.91446817E-05 -4.37702482E-06
  2.71453665E-18  7.92568576E-06 -1.17898972E-16  1.36559879E-04 -4.07375146E-05
 -3.09382113E-05 -1.09867453E-17 -3.54596924E-05 -4.47163646E-05  1.98132589E-04
  4.76987338E-16  1.45884961E-04 -6.47828029E-04 -2.27254599E-04  3.08842090E-16
 -4.04347053E-04 -9.98469457E-06 -2.91446817E-05 -4.37702483E-06  2.94869700E-17
 -7.92568576E-06  2.40108000E-16 -6.54679130E-05  4.74409783E-04 -6.54679130E-05
  4.74409783E-04 -6.54679130E-05  4.74409783E-04 -6.54679130E-05  4.74409783E-04
  7.01878075E-01  3.46153330E-02  1.92577249E-04  3.28590386E-16 -1.66848072E-05
 -6.89154870E-03 -4.03611681E-04 -1.70310654E-16  4.63425161E-05  9.34197088E-04
 -9.23572988E-04 -2.25463465E-16 -4.04836059E-04 -6.60948273E-03 -6.82975952E-03
 -6.63764523E-03  5.17420424E-16  7.24762276E-06  1.06321929E-15  7.01878075E-01
  3.46153330E-02 -1.92577249E-04 -8.81022172E-17 -1.66848072E-05 -6.89154870E-03
  4.03611680E-04 -1.86649225E-16  4.63425161E-05  9.34197094E-04  9.23572989E-04
  4.58854811E-16 -4.04836060E-04 -6.60948273E-03 -6.82975952E-03 -6.63764523E-03
 -5.30901936E-16 -7.24762276E-06 -2.40740034E-16 -1.54146677E-04  9.54175119E-04
 -2.37007764E-04  1.31813930E-03 -1.54146677E-04  9.54175119E-04 -2.37007764E-04
  1.31813930E-03 -6.63529311E-06  2.81887134E-06  9.52426089E-08 -2.74324418E-16
 -1.00206260E-05 -2.60128691E-04  7.50701701E-05  1.30716532E-15  7.24924313E-05
 -8.70918997E-03  2.13744627E-03  8.47886627E-16 -6.62202470E-04 -1.00870518E-05
  5.42999920E-06  1.06477876E-05  5.91753622E-16 -2.28684443E-07  1.27301023E-16
  6.63529474E-06 -2.81887128E-06  9.52425999E-08  3.94177916E-17  1.00206259E-05
  2.60128691E-04  7.50701702E-05  6.30635674E-16 -7.24924313E-05  8.70918997E-03
  2.13744627E-03 -1.75494554E-15  6.62202470E-04  1.00870518E-05 -5.42999922E-06
 -1.06477876E-05 -1.66879391E-16 -2.28684445E-07  4.23887723E-16 -4.57279512E-05
  3.18173808E-04 -4.57279512E-05  3.18173808E-04  4.57279512E-05 -3.18173808E-04
  4.57279512E-05 -3.18173808E-04  7.02161198E-01  3.52213672E-02 -3.13801063E-04
  3.63630807E-16  8.35028712E-06 -1.30348933E-02  2.14492825E-03 -6.31809542E-16
 -7.76797843E-05  2.26042586E-02 -5.98427635E-03  2.41330305E-15 -6.45947556E-04
 -6.19818337E-03 -6.73665799E-03 -6.49722145E-03 -1.45421379E-16  1.45500472E-06
  2.28177798E-16 -7.02161198E-01 -3.52213672E-02 -3.13801063E-04 -3.00616463E-16
 -8.35028713E-06  1.30348933E-02  2.14492825E-03  1.18838542E-15  7.76797843E-05
 -2.26042586E-02 -5.98427635E-03 -2.96080608E-15  6.45947556E-04  6.19818336E-03
  6.73665799E-03  6.49722145E-03 -9.79969256E-17  1.45500471E-06  4.12147536E-17
 -8.45808394E-05  1.08748149E-03 -1.06933904E-04  1.34646768E-03  8.45808394E-05
 -1.08748149E-03  1.06933904E-04 -1.34646768E-03 -1.59497908E-01  3.11164360E-01
 -1.00844990E-01 -7.56410534E-15  8.72406074E-05  2.34047659E-01 -4.18331404E-03
 -3.72914900E-15  1.46910277E-04  3.73926524E-03 -9.98036798E-04  5.34735488E-14
  1.90961654E-04  8.11930672E-03  2.28764110E-04 -1.65449742E-02  3.64294966E-16
  1.39601746E-06  4.15980089E-16 -1.59497908E-01  3.11164360E-01  1.00844990E-01
 -3.12116426E-14  8.72406074E-05  2.34047659E-01  4.18331404E-03 -1.06749982E-14
  1.46910277E-04  3.73926524E-03  9.98036797E-04 -5.29535266E-14  1.90961654E-04
  8.11930672E-03  2.28764110E-04 -1.65449742E-02  2.41354007E-15 -1.39601746E-06
  1.40441937E-16  8.39064942E-02  1.47002225E-02  8.39064942E-02  1.47002225E-02
  8.39064942E-02  1.47002225E-02  8.39064942E-02  1.47002225E-02 -3.73538708E-03
  7.26022744E-03 -2.25248310E-03  5.41089184E-17 -6.69236062E-05  4.96049315E-03
 -4.84794044E-04  4.88926083E-16  8.70572453E-05 -3.41191011E-04  2.40644750E-04
 -4.08507968E-15  5.03696857E-04  1.87367086E-04 -3.89134559E-04 -1.74434199E-05
 -7.72755320E-18 -3.26905820E-06  1.03685091E-16 -3.73538708E-03  7.26022744E-03
  2.25248310E-03  9.94269993E-17 -6.69236062E-05  4.96049315E-03  4.84794044E-04
 -1.74224003E-15  8.70572453E-05 -3.41191009E-04 -2.40644750E-04  5.87617909E-15
  5.03696857E-04  1.87367086E-04 -3.89134559E-04 -1.74434199E-05  3.65104749E-17
  3.26905820E-06 -3.96667519E-16  1.94054806E-03  1.77769171E-03  1.98681445E-03
  3.00314780E-04  1.94054806E-03  1.77769171E-03  1.98681445E-03  3.00314780E-04
  3.88041909E-03 -7.26106498E-03  2.35769748E-03 -1.69536960E-15  3.01316194E-04
 -5.52696583E-03  9.78719433E-04  2.60238085E-14 -8.57555164E-04  3.08442001E-03
 -9.31513290E-04  6.02276018E-14  2.23215357E-03 -1.61651886E-04  8.36921567E-05
  4.31583302E-04  2.70094609E-16 -2.50220186E-05  4.98609176E-18  3.88041909E-03
 -7.26106498E-03 -2.35769748E-03  2.04120792E-15  3.01316194E-04 -5.52696583E-03
 -9.78719433E-04 -2.85049171E-14 -8.57555164E-04  3.08442001E-03  9.31513291E-04
 -5.78830968E-14  2.23215357E-03 -1.61651886E-04  8.36921567E-05  4.31583302E-04
 -2.08813610E-16  2.50220186E-05 -3.60271833E-17 -1.80011277E-03 -2.56207199E-03
 -1.80011277E-03 -2.56207199E-03 -1.80011277E-03 -2.56207199E-03 -1.80011277E-03
 -2.56207199E-03 -1.59589944E-01  3.10795396E-01 -1.00799843E-01  9.70373616E-15
  5.15606711E-04  2.36296641E-01 -3.66788471E-03  7.68394636E-15  1.60811968E-04
  1.91445788E-03 -1.21024720E-04  1.30502074E-16  2.00227674E-03  8.02628126E-03
 -1.66594457E-02  1.26953129E-04 -8.14442636E-16 -2.05646335E-05  7.45632921E-16
 -1.59589944E-01  3.10795396E-01  1.00799843E-01 -1.70558339E-15  5.15606711E-04
  2.36296641E-01  3.66788471E-03 -1.06516911E-14  1.60811968E-04  1.91445786E-03
  1.21024715E-04  9.73272145E-15  2.00227674E-03  8.02628126E-03 -1.66594457E-02
  1.26953129E-04  1.15786732E-15  2.05646335E-05  2.72307243E-16  8.35730731E-02
  1.51113583E-02  8.42275697E-02  1.38580580E-02  8.35730731E-02  1.51113583E-02
  8.42275697E-02  1.38580580E-02 -1.23757642E-01  2.49282940E-01  1.70345752E-01
  2.86688252E-14  8.78916634E-05  2.50742888E-01  6.24703347E-02 -2.67686540E-13
  2.53661632E-04 -2.79781012E-02  1.61997606E-02 -5.53474864E-13  1.08351910E-03
 -8.43152756E-03  1.36135085E-02 -1.15192490E-02 -6.69816062E-16  1.64931219E-05
  2.20715298E-17  1.23757642E-01 -2.49282940E-01  1.70345752E-01  5.51885612E-14
 -8.78916634E-05 -2.50742888E-01  6.24703347E-02  2.71431428E-13 -2.53661632E-04
  2.79781012E-02  1.61997606E-02  5.59001583E-13 -1.08351910E-03  8.43152756E-03
 -1.36135085E-02  1.15192490E-02 -6.17735416E-15  1.64931219E-05 -1.27047524E-16
  1.45534930E-01  5.81071269E-02  1.45534930E-01  5.81071269E-02 -1.45534930E-01
 -5.81071269E-02 -1.45534930E-01 -5.81071269E-02 -4.66696764E-03  9.42263858E-03
  6.42453504E-03  2.76402420E-15 -2.32981838E-04  8.93610143E-03  2.06767122E-03
 -1.36078297E-14  9.12099946E-04 -4.79647404E-03  1.08357236E-03  7.34993230E-14
  2.32367604E-03 -3.17750599E-04 -4.30002336E-04  5.04256035E-04  4.74151429E-16
 -1.87198695E-05 -1.53413000E-16  4.66696764E-03 -9.42263858E-03  6.42453504E-03
 -1.20434122E-15  2.32981838E-04 -8.93610143E-03  2.06767122E-03  1.22548101E-14
 -9.12099946E-04  4.79647404E-03  1.08357236E-03 -7.02932841E-14 -2.32367604E-03
  3.17750599E-04  4.30002336E-04 -5.04256035E-04  3.30196629E-16 -1.87198695E-05
  3.78452284E-16  5.60788118E-03  4.30228310E-03  5.36735048E-03  1.65606590E-03
 -5.60788118E-03 -4.30228310E-03 -5.36735048E-03 -1.65606590E-03  4.79157175E-03