A_B_60                                                                  
SP        RB3LYP                                                      6-31+G(d)           
Number of atoms                            I               12
Info1-9                                    I   N=           9
          23          23           0           0           0         110
           1          18        -502
Charge                                     I                0
Multiplicity                               I                1
Number of electrons                        I               32
Number of alpha electrons                  I               16
Number of beta electrons                   I               16
Number of basis functions                  I               92
Number of independent functions            I               92
Number of point charges in /Mol/           I                0
Number of translation vectors              I                0
Atomic numbers                             I   N=          12
           6           6           1           1           1           1
           6           6           1           1           1           1
Nuclear charges                            R   N=          12
  6.00000000E+00  6.00000000E+00  1.00000000E+00  1.00000000E+00  1.00000000E+00
  1.00000000E+00  6.00000000E+00  6.00000000E+00  1.00000000E+00  1.00000000E+00
  1.00000000E+00  1.00000000E+00
Current cartesian coordinates              R   N=          36
  1.27131137E+00  0.00000000E+00  0.00000000E+00 -1.27131137E+00  0.00000000E+00
  0.00000000E+00  2.34821716E+00  1.76652733E+00  0.00000000E+00  2.34821716E+00
 -1.76652733E+00  0.00000000E+00 -2.34821716E+00  1.76652733E+00  0.00000000E+00
 -2.34821716E+00 -1.76652733E+00  0.00000000E+00  1.27131137E+00  0.00000000E+00
  9.44863066E+00 -1.27131137E+00  0.00000000E+00  9.44863066E+00  2.34821716E+00
  8.83263664E-01  7.91877264E+00  2.34821716E+00 -8.83263664E-01  1.09784887E+01
 -2.34821716E+00  8.83263664E-01  7.91877264E+00 -2.34821716E+00 -8.83263664E-01
  1.09784887E+01
Force Field                                I                0
Int Atom Types                             I   N=          12
           0           0           0           0           0           0
           0           0           0           0           0           0
MM charges                                 R   N=          12
  0.00000000E+00  0.00000000E+00  0.00000000E+00  0.00000000E+00  0.00000000E+00
  0.00000000E+00  0.00000000E+00  0.00000000E+00  0.00000000E+00  0.00000000E+00
  0.00000000E+00  0.00000000E+00
Integer atomic weights                     I   N=          12
          12          12           1           1           1           1
          12          12           1           1           1           1
Real atomic weights                        R   N=          12
  1.20000000E+01  1.20000000E+01  1.00782504E+00  1.00782504E+00  1.00782504E+00
  1.00782504E+00  1.20000000E+01  1.20000000E+01  1.00782504E+00  1.00782504E+00
  1.00782504E+00  1.00782504E+00
Atom fragment info                         I   N=          12
           0           0           0           0           0           0
           0           0           0           0           0           0
Atom residue num                           I   N=          12
           0           0           0           0           0           0
           0           0           0           0           0           0
Nuclear spins                              I   N=          12
           0           0           1           1           1           1
           0           0           1           1           1           1
Nuclear ZEff                               R   N=          12
 -3.60000000E+00 -3.60000000E+00 -1.00000000E+00 -1.00000000E+00 -1.00000000E+00
 -1.00000000E+00 -3.60000000E+00 -3.60000000E+00 -1.00000000E+00 -1.00000000E+00
 -1.00000000E+00 -1.00000000E+00
Nuclear ZNuc                               R   N=          12
  6.00000000E+00  6.00000000E+00  1.00000000E+00  1.00000000E+00  1.00000000E+00
  1.00000000E+00  6.00000000E+00  6.00000000E+00  1.00000000E+00  1.00000000E+00
  1.00000000E+00  1.00000000E+00
Nuclear QMom                               R   N=          12
  0.00000000E+00  0.00000000E+00  0.00000000E+00  0.00000000E+00  0.00000000E+00
  0.00000000E+00  0.00000000E+00  0.00000000E+00  0.00000000E+00  0.00000000E+00
  0.00000000E+00  0.00000000E+00
Nuclear GFac                               R   N=          12
  0.00000000E+00  0.00000000E+00  2.79284600E+00  2.79284600E+00  2.79284600E+00
  2.79284600E+00  0.00000000E+00  0.00000000E+00  2.79284600E+00  2.79284600E+00
  2.79284600E+00  2.79284600E+00
MicOpt                                     I   N=          12
          -1          -1          -1          -1          -1          -1
          -1          -1          -1          -1          -1          -1
Number of contracted shells                I               36
Number of primitive shells                 I               80
Pure/Cartesian d shells                    I                1
Pure/Cartesian f shells                    I                0
Highest angular momentum                   I                2
Largest degree of contraction              I                6
Shell types                                I   N=          36
           0          -1          -1          -1           2           0
          -1          -1          -1           2           0           0
           0           0           0           0           0           0
           0          -1          -1          -1           2           0
          -1          -1          -1           2           0           0
           0           0           0           0           0           0
Number of primitives per shell             I   N=          36
           6           3           1           1           1           6
           3           1           1           1           3           1
           3           1           3           1           3           1
           6           3           1           1           1           6
           3           1           1           1           3           1
           3           1           3           1           3           1
Shell to atom map                          I   N=          36
           1           1           1           1           1           2
           2           2           2           2           3           3
           4           4           5           5           6           6
           7           7           7           7           7           8
           8           8           8           8           9           9
          10          10          11          11          12          12
Primitive exponents                        R   N=          80
  3.04752488E+03  4.57369518E+02  1.03948685E+02  2.92101553E+01  9.28666296E+00
  3.16392696E+00  7.86827235E+00  1.88128854E+00  5.44249258E-01  1.68714478E-01
  4.38000000E-02  8.00000000E-01  3.04752488E+03  4.57369518E+02  1.03948685E+02
  2.92101553E+01  9.28666296E+00  3.16392696E+00  7.86827235E+00  1.88128854E+00
  5.44249258E-01  1.68714478E-01  4.38000000E-02  8.00000000E-01  1.87311370E+01
  2.82539436E+00  6.40121692E-01  1.61277759E-01  1.87311370E+01  2.82539436E+00
  6.40121692E-01  1.61277759E-01  1.87311370E+01  2.82539436E+00  6.40121692E-01
  1.61277759E-01  1.87311370E+01  2.82539436E+00  6.40121692E-01  1.61277759E-01
  3.04752488E+03  4.57369518E+02  1.03948685E+02  2.92101553E+01  9.28666296E+00
  3.16392696E+00  7.86827235E+00  1.88128854E+00  5.44249258E-01  1.68714478E-01
  4.38000000E-02  8.00000000E-01  3.04752488E+03  4.57369518E+02  1.03948685E+02
  2.92101553E+01  9.28666296E+00  3.16392696E+00  7.86827235E+00  1.88128854E+00
  5.44249258E-01  1.68714478E-01  4.38000000E-02  8.00000000E-01  1.87311370E+01
  2.82539436E+00  6.40121692E-01  1.61277759E-01  1.87311370E+01  2.82539436E+00
  6.40121692E-01  1.61277759E-01  1.87311370E+01  2.82539436E+00  6.40121692E-01
  1.61277759E-01  1.87311370E+01  2.82539436E+00  6.40121692E-01  1.61277759E-01
Contraction coefficients                   R   N=          80
  1.83473713E-03  1.40373228E-02  6.88426223E-02  2.32184443E-01  4.67941348E-01
  3.62311985E-01 -1.19332420E-01 -1.60854152E-01  1.14345644E+00  1.00000000E+00
  1.00000000E+00  1.00000000E+00  1.83473713E-03  1.40373228E-02  6.88426223E-02
  2.32184443E-01  4.67941348E-01  3.62311985E-01 -1.19332420E-01 -1.60854152E-01
  1.14345644E+00  1.00000000E+00  1.00000000E+00  1.00000000E+00  3.34946043E-02
  2.34726953E-01  8.13757326E-01  1.00000000E+00  3.34946043E-02  2.34726953E-01
  8.13757326E-01  1.00000000E+00  3.34946043E-02  2.34726953E-01  8.13757326E-01
  1.00000000E+00  3.34946043E-02  2.34726953E-01  8.13757326E-01  1.00000000E+00
  1.83473713E-03  1.40373228E-02  6.88426223E-02  2.32184443E-01  4.67941348E-01
  3.62311985E-01 -1.19332420E-01 -1.60854152E-01  1.14345644E+00  1.00000000E+00
  1.00000000E+00  1.00000000E+00  1.83473713E-03  1.40373228E-02  6.88426223E-02
  2.32184443E-01  4.67941348E-01  3.62311985E-01 -1.19332420E-01 -1.60854152E-01
  1.14345644E+00  1.00000000E+00  1.00000000E+00  1.00000000E+00  3.34946043E-02
  2.34726953E-01  8.13757326E-01  1.00000000E+00  3.34946043E-02  2.34726953E-01
  8.13757326E-01  1.00000000E+00  3.34946043E-02  2.34726953E-01  8.13757326E-01
  1.00000000E+00  3.34946043E-02  2.34726953E-01  8.13757326E-01  1.00000000E+00
P(S=P) Contraction coefficients            R   N=          80
  0.00000000E+00  0.00000000E+00  0.00000000E+00  0.00000000E+00  0.00000000E+00
  0.00000000E+00  6.89990666E-02  3.16423961E-01  7.44308291E-01  1.00000000E+00
  1.00000000E+00  0.00000000E+00  0.00000000E+00  0.00000000E+00  0.00000000E+00
  0.00000000E+00  0.00000000E+00  0.00000000E+00  6.89990666E-02  3.16423961E-01
  7.44308291E-01  1.00000000E+00  1.00000000E+00  0.00000000E+00  0.00000000E+00
  0.00000000E+00  0.00000000E+00  0.00000000E+00  0.00000000E+00  0.00000000E+00
  0.00000000E+00  0.00000000E+00  0.00000000E+00  0.00000000E+00  0.00000000E+00
  0.00000000E+00  0.00000000E+00  0.00000000E+00  0.00000000E+00  0.00000000E+00
  0.00000000E+00  0.00000000E+00  0.00000000E+00  0.00000000E+00  0.00000000E+00
  0.00000000E+00  6.89990666E-02  3.16423961E-01  7.44308291E-01  1.00000000E+00
  1.00000000E+00  0.00000000E+00  0.00000000E+00  0.00000000E+00  0.00000000E+00
  0.00000000E+00  0.00000000E+00  0.00000000E+00  6.89990666E-02  3.16423961E-01
  7.44308291E-01  1.00000000E+00  1.00000000E+00  0.00000000E+00  0.00000000E+00
  0.00000000E+00  0.00000000E+00  0.00000000E+00  0.00000000E+00  0.00000000E+00
  0.00000000E+00  0.00000000E+00  0.00000000E+00  0.00000000E+00  0.00000000E+00
  0.00000000E+00  0.00000000E+00  0.00000000E+00  0.00000000E+00  0.00000000E+00
Coordinates of each shell                  R   N=         108
  1.27131137E+00  0.00000000E+00  0.00000000E+00  1.27131137E+00  0.00000000E+00
  0.00000000E+00  1.27131137E+00  0.00000000E+00  0.00000000E+00  1.27131137E+00
  0.00000000E+00  0.00000000E+00  1.27131137E+00  0.00000000E+00  0.00000000E+00
 -1.27131137E+00  0.00000000E+00  0.00000000E+00 -1.27131137E+00  0.00000000E+00
  0.00000000E+00 -1.27131137E+00  0.00000000E+00  0.00000000E+00 -1.27131137E+00
  0.00000000E+00  0.00000000E+00 -1.27131137E+00  0.00000000E+00  0.00000000E+00
  2.34821716E+00  1.76652733E+00  0.00000000E+00  2.34821716E+00  1.76652733E+00
  0.00000000E+00  2.34821716E+00 -1.76652733E+00  0.00000000E+00  2.34821716E+00
 -1.76652733E+00  0.00000000E+00 -2.34821716E+00  1.76652733E+00  0.00000000E+00
 -2.34821716E+00  1.76652733E+00  0.00000000E+00 -2.34821716E+00 -1.76652733E+00
  0.00000000E+00 -2.34821716E+00 -1.76652733E+00  0.00000000E+00  1.27131137E+00
  0.00000000E+00  9.44863066E+00  1.27131137E+00  0.00000000E+00  9.44863066E+00
  1.27131137E+00  0.00000000E+00  9.44863066E+00  1.27131137E+00  0.00000000E+00
  9.44863066E+00  1.27131137E+00  0.00000000E+00  9.44863066E+00 -1.27131137E+00
  0.00000000E+00  9.44863066E+00 -1.27131137E+00  0.00000000E+00  9.44863066E+00
 -1.27131137E+00  0.00000000E+00  9.44863066E+00 -1.27131137E+00  0.00000000E+00
  9.44863066E+00 -1.27131137E+00  0.00000000E+00  9.44863066E+00  2.34821716E+00
  8.83263664E-01  7.91877264E+00  2.34821716E+00  8.83263664E-01  7.91877264E+00
  2.34821716E+00 -8.83263664E-01  1.09784887E+01  2.34821716E+00 -8.83263664E-01
  1.09784887E+01 -2.34821716E+00  8.83263664E-01  7.91877264E+00 -2.34821716E+00
  8.83263664E-01  7.91877264E+00 -2.34821716E+00 -8.83263664E-01  1.09784887E+01
 -2.34821716E+00 -8.83263664E-01  1.09784887E+01
Constraint Structure                       R   N=          36
  1.27131137E+00  0.00000000E+00  0.00000000E+00 -1.27131137E+00  0.00000000E+00
  0.00000000E+00  2.34821716E+00  1.76652733E+00  0.00000000E+00  2.34821716E+00
 -1.76652733E+00  0.00000000E+00 -2.34821716E+00  1.76652733E+00  0.00000000E+00
 -2.34821716E+00 -1.76652733E+00  0.00000000E+00  1.27131137E+00  0.00000000E+00
  9.44863066E+00 -1.27131137E+00  0.00000000E+00  9.44863066E+00  2.34821716E+00
  8.83263664E-01  7.91877264E+00  2.34821716E+00 -8.83263664E-01  1.09784887E+01
 -2.34821716E+00  8.83263664E-01  7.91877264E+00 -2.34821716E+00 -8.83263664E-01
  1.09784887E+01
Num ILSW                                   I              100
ILSW                                       I   N=         100
           0           1           0           0           2           0
           0           0           0           0         402          -1
           5           0           0           0           0           0
           0           0           1           0           0           0
           1           1           0           0           0           0
           0           0      100000           0          -1           0
           0           0           0           0           0           0
           0           0           0           1           0           0
           0           0           1           0           0           0
           0           0           4          41           0           0
           0           0           5           0           0           0
           0           0           0           0           0           0
           0           0           0           0           0           0
           0           0           0           0           0           0
           0           0           0           0           0           0
           0           0           0           0           0           0
           0           0           0           0
Num RLSW                                   I               41
RLSW                                       R   N=          41
  8.00000000E-01  7.20000000E-01  1.00000000E+00  8.10000000E-01  2.00000000E-01
  0.00000000E+00  0.00000000E+00  1.00000000E+00  0.00000000E+00  0.00000000E+00
  0.00000000E+00  0.00000000E+00  1.00000000E+00  0.00000000E+00  0.00000000E+00
  0.00000000E+00  0.00000000E+00  1.00000000E+00  0.00000000E+00  0.00000000E+00
  0.00000000E+00  0.00000000E+00  1.00000000E+00  0.00000000E+00  0.00000000E+00
  0.00000000E+00  0.00000000E+00  1.00000000E+00  0.00000000E+00  0.00000000E+00
  0.00000000E+00  0.00000000E+00  1.00000000E+00  0.00000000E+00  0.00000000E+00
  0.00000000E+00  0.00000000E+00  0.00000000E+00  1.00000000E+00  1.00000000E+00
  0.00000000E+00
MxBond                                     I                3
NBond                                      I   N=          12
           3           3           1           1           1           1
           3           3           1           1           1           1
IBond                                      I   N=          36
           2           3           4           1           5           6
           1           0           0           1           0           0
           2           0           0           2           0           0
           8           9          10           7          11          12
           7           0           0           7           0           0
           8           0           0           8           0           0
RBond                                      R   N=          36
  2.00000000E+00  1.00000000E+00  1.00000000E+00  2.00000000E+00  1.00000000E+00
  1.00000000E+00  1.00000000E+00  0.00000000E+00  0.00000000E+00  1.00000000E+00
  0.00000000E+00  0.00000000E+00  1.00000000E+00  0.00000000E+00  0.00000000E+00
  1.00000000E+00  0.00000000E+00  0.00000000E+00  2.00000000E+00  1.00000000E+00
  1.00000000E+00  2.00000000E+00  1.00000000E+00  1.00000000E+00  1.00000000E+00
  0.00000000E+00  0.00000000E+00  1.00000000E+00  0.00000000E+00  0.00000000E+00
  1.00000000E+00  0.00000000E+00  0.00000000E+00  1.00000000E+00  0.00000000E+00
  0.00000000E+00
Virial Ratio                               R      2.011860987127113E+00
SCF Energy                                 R     -1.571859317009438E+02
Total Energy                               R     -1.571859317009438E+02
RMS Density                                R      4.017123990627895E-09
External E-field                           R   N=          35
  0.00000000E+00  0.00000000E+00  0.00000000E+00  0.00000000E+00  0.00000000E+00
  0.00000000E+00  0.00000000E+00  0.00000000E+00  0.00000000E+00  0.00000000E+00
  0.00000000E+00  0.00000000E+00  0.00000000E+00  0.00000000E+00  0.00000000E+00
  0.00000000E+00  0.00000000E+00  0.00000000E+00  0.00000000E+00  0.00000000E+00
  0.00000000E+00  0.00000000E+00  0.00000000E+00  0.00000000E+00  0.00000000E+00
  0.00000000E+00  0.00000000E+00  0.00000000E+00  0.00000000E+00  0.00000000E+00
  0.00000000E+00  0.00000000E+00  0.00000000E+00  0.00000000E+00  0.00000000E+00
IOpCl                                      I                0
IROHF                                      I                0
Alpha Orbital Energies                     R   N=          92
 -1.01991377E+01 -1.01983309E+01 -1.01959564E+01 -1.01951485E+01 -7.62563973E-01
 -7.59313409E-01 -5.84981619E-01 -5.81845456E-01 -4.73138783E-01 -4.69873537E-01
 -4.23190386E-01 -4.20049968E-01 -3.63674425E-01 -3.60484331E-01 -2.76835365E-01
 -2.72924594E-01 -1.25937061E-02 -5.88898196E-03  1.39993495E-02  2.38856778E-02
  3.32006074E-02  4.27640309E-02  4.39432990E-02  6.05804963E-02  7.59454497E-02
  7.84137912E-02  8.46845170E-02  9.39700814E-02  1.02342370E-01  1.20530129E-01
  1.32253195E-01  1.46917136E-01  1.52954996E-01  1.73338250E-01  1.75472828E-01
  1.94824719E-01  1.96891302E-01  2.24543527E-01  2.45878199E-01  2.68879710E-01
  3.44480948E-01  3.46535441E-01  3.49283519E-01  3.68519615E-01  5.78329604E-01
  5.85495387E-01  6.57862681E-01  6.64427654E-01  6.79067534E-01  7.03697716E-01
  7.23717348E-01  7.29057776E-01  7.57305554E-01  7.84558097E-01  8.31350168E-01
  8.66259179E-01  8.99938057E-01  9.13162737E-01  9.34550305E-01  9.45849714E-01
  9.61143824E-01  1.00297317E+00  1.01552773E+00  1.03994627E+00  1.16495380E+00
  1.17245983E+00  1.21934020E+00  1.22609690E+00  1.44771234E+00  1.45061623E+00
  1.53855732E+00  1.54371014E+00  1.81603310E+00  1.81970717E+00  1.88498679E+00
  1.88985574E+00  1.99963457E+00  2.00712218E+00  2.10801825E+00  2.11148659E+00
  2.29399102E+00  2.29820712E+00  2.37043712E+00  2.37313093E+00  2.66456515E+00
  2.66859945E+00  2.69958733E+00  2.70891982E+00  4.11722552E+00  4.14102201E+00
  4.25084713E+00  4.26377383E+00
Alpha MO coefficients                      R   N=        8464
  7.01851583E-01  3.45297176E-02  1.67675340E-04  3.27867880E-06  1.85683699E-05
 -6.26647619E-03 -2.36826380E-04 -1.47444863E-06 -5.66622781E-05  7.64106894E-04
 -8.12473088E-04  2.59688957E-06  1.11158936E-04 -6.66087986E-03 -6.68131889E-03
 -6.89224447E-03  1.59880180E-07 -2.61326405E-06  1.12713735E-07  7.01851584E-01
  3.45297176E-02 -1.67675340E-04  3.27867880E-06  1.85683700E-05 -6.26647620E-03
  2.36826379E-04 -1.47444865E-06 -5.66622781E-05  7.64106901E-04  8.12473090E-04
  2.59688956E-06  1.11158936E-04 -6.66087986E-03 -6.68131889E-03 -6.89224447E-03
 -1.59880179E-07  2.61326405E-06  1.12713735E-07 -1.83336610E-04  8.94780496E-04
 -1.83597014E-04  8.98246139E-04 -1.83336610E-04  8.94780497E-04 -1.83597014E-04
  8.98246139E-04 -1.56144456E-04 -3.79287543E-05 -8.93409289E-06 -1.18486378E-06
 -7.67787518E-06  2.24133678E-04  5.22107248E-05 -1.11817297E-06  3.12025535E-06
 -1.27517889E-04  9.41247457E-05  9.12167847E-07  1.08925087E-04 -1.37245922E-05
 -9.35431061E-06 -1.42550815E-05 -1.97204205E-06  2.28602564E-06 -4.21968790E-06
 -1.56144458E-04 -3.79287544E-05  8.93409289E-06 -1.18486379E-06 -7.67787518E-06
  2.24133678E-04 -5.22107249E-05 -1.11817296E-06  3.12025534E-06 -1.27517889E-04
 -9.41247457E-05  9.12167859E-07  1.08925087E-04 -1.37245922E-05 -9.35431059E-06
 -1.42550815E-05  1.97204205E-06 -2.28602564E-06 -4.21968790E-06  1.33600009E-05
 -6.59617182E-05 -7.44624757E-06 -5.39767850E-05  1.33600009E-05 -6.59617183E-05
 -7.44624758E-06 -5.39767850E-05  7.02152926E-01  3.51998438E-02 -3.27413647E-04
  3.28716364E-06  1.64162338E-06 -1.29591559E-02  2.35259497E-03 -2.68590831E-06
 -7.57959101E-06  1.98577599E-02 -5.35204216E-03  2.46453873E-06  1.31378620E-05
 -6.23749449E-03 -6.50646544E-03 -6.75397899E-03 -1.11970601E-07  4.60870966E-07
  1.22426654E-07 -7.02152926E-01 -3.51998437E-02 -3.27413647E-04 -3.28716364E-06
 -1.64162338E-06  1.29591559E-02  2.35259497E-03  2.68590831E-06  7.57959099E-06
 -1.98577599E-02 -5.35204216E-03 -2.46453872E-06 -1.31378619E-05  6.23749449E-03
  6.50646544E-03  6.75397899E-03 -1.11970601E-07  4.60870966E-07 -1.22426654E-07
 -1.00614500E-04  1.15690984E-03 -1.00451646E-04  1.15662372E-03  1.00614500E-04
 -1.15690984E-03  1.00451646E-04 -1.15662372E-03  1.22168448E-05  1.89551444E-07
 -3.64126940E-07 -6.58082255E-06 -1.25245044E-06  1.62924548E-05  2.64379934E-05
  5.56710389E-05 -4.20408404E-05 -6.36984944E-04  1.82365666E-04  3.37445749E-05
 -8.63540546E-05  2.78517720E-07  1.62821109E-06 -2.74141334E-08 -2.21820101E-06
 -5.31309502E-07 -6.23123243E-07 -1.22168467E-05 -1.89551548E-07 -3.64126937E-07
  6.58082255E-06  1.25245044E-06 -1.62924547E-05  2.64379934E-05 -5.56710389E-05
  4.20408404E-05  6.36984944E-04  1.82365666E-04 -3.37445749E-05  8.63540547E-05
 -2.78517705E-07 -1.62821107E-06  2.74141482E-08 -2.21820101E-06 -5.31309502E-07
  6.23123242E-07  1.55620506E-05 -1.30366771E-04 -4.19642148E-06  5.20874282E-05
 -1.55620506E-05  1.30366771E-04  4.19642148E-06 -5.20874283E-05  1.40234814E-04
 -2.96249951E-05  2.41851877E-05 -1.30036479E-06 -2.34531908E-05 -3.92516095E-05
 -1.58565827E-04 -7.80120829E-06  1.05817648E-04 -5.28310481E-04  1.89988633E-04
 -4.23478855E-05 -3.24658525E-04 -7.25969639E-06 -2.18057486E-05 -2.35751105E-06
  5.02394162E-07  6.06857106E-06 -1.54127471E-07  1.40234812E-04 -2.96249952E-05
 -2.41851877E-05 -1.30036478E-06 -2.34531908E-05 -3.92516095E-05  1.58565827E-04
 -7.80120834E-06  1.05817648E-04 -5.28310483E-04 -1.89988633E-04 -4.23478856E-05
 -3.24658525E-04 -7.25969637E-06 -2.18057486E-05 -2.35751103E-06 -5.02394162E-07
 -6.06857106E-06 -1.54127472E-07 -6.14052965E-05  4.29212241E-04 -4.09858006E-05
  3.33653259E-04 -6.14052965E-05  4.29212242E-04 -4.09858006E-05  3.33653260E-04
  7.01868821E-01  3.45848659E-02  1.81608283E-04 -1.08293455E-05 -1.57202944E-05
 -6.64928339E-03 -3.26491099E-04  4.72667911E-05  4.16212324E-05  9.15783287E-04
 -8.93279126E-04  2.88774083E-05 -3.29847980E-04 -6.62800385E-03 -6.80620695E-03
 -6.69856461E-03  8.09228947E-07  4.60726473E-06 -9.83651182E-05  7.01868822E-01
  3.45848659E-02 -1.81608283E-04 -1.08293455E-05 -1.57202944E-05 -6.64928339E-03
  3.26491098E-04  4.72667912E-05  4.16212324E-05  9.15783295E-04  8.93279129E-04
  2.88774083E-05 -3.29847980E-04 -6.62800385E-03 -6.80620696E-03 -6.69856461E-03
 -8.09228946E-07 -4.60726473E-06 -9.83651182E-05 -1.53185909E-04  8.47263679E-04
 -2.20325701E-04  1.17506067E-03 -1.53185909E-04  8.47263679E-04 -2.20325701E-04
  1.17506067E-03 -1.09025386E-05  2.62510199E-06  6.99273464E-08  6.44064825E-06
 -4.97787948E-06 -1.95146760E-04  5.86366003E-05 -8.09696400E-05  4.24279613E-05
 -6.69214373E-03  1.64823554E-03 -1.33341792E-04 -4.88125361E-04 -6.95418648E-06
  4.23985694E-06  8.33620087E-06  6.83829868E-07  6.51389360E-07 -7.85555909E-08
  1.09025368E-05 -2.62510209E-06  6.99273367E-08 -6.44064825E-06  4.97787947E-06
  1.95146760E-04  5.86366003E-05  8.09696400E-05 -4.24279613E-05  6.69214373E-03
  1.64823554E-03  1.33341792E-04  4.88125360E-04  6.95418649E-06 -4.23985693E-06
 -8.33620085E-06  6.83829868E-07  6.51389358E-07  7.85555903E-08 -3.55414729E-05
  3.11013017E-04 -2.89420842E-05  1.55392004E-04  3.55414728E-05 -3.11013017E-04
  2.89420842E-05 -1.55392004E-04  7.02157585E-01  3.52105658E-02 -3.18558568E-04
 -8.49971168E-06  7.53318017E-06 -1.29673952E-02  2.21998861E-03  7.38287401E-05
 -7.02206146E-05  2.22748357E-02 -5.91163615E-03  6.11965126E-05 -4.88577509E-04
 -6.21337706E-03 -6.68493169E-03 -6.56152479E-03 -1.48950872E-06  1.05036259E-07
 -1.21218208E-04 -7.02157585E-01 -3.52105658E-02 -3.18558568E-04  8.49971167E-06
 -7.53318018E-06  1.29673952E-02  2.21998861E-03 -7.38287401E-05  7.02206146E-05
 -2.22748357E-02 -5.91163615E-03 -6.11965126E-05  4.88577509E-04  6.21337706E-03
  6.68493168E-03  6.56152478E-03 -1.48950872E-06  1.05036256E-07  1.21218208E-04
 -8.62167551E-05  1.03717411E-03 -9.93941318E-05  1.27466927E-03  8.62167551E-05
 -1.03717411E-03  9.93941318E-05 -1.27466927E-03 -1.59466267E-01  3.11148633E-01
 -1.00781492E-01  2.26494811E-04  1.29115836E-05  2.33851861E-01 -4.20838520E-03
  1.95442395E-04  4.15796476E-06  3.71602689E-03 -9.80286827E-04  2.98689903E-05
  1.90901034E-04  8.12236454E-03  2.45399982E-04 -1.65507582E-02 -1.91529291E-06
  5.24052920E-06  2.42070182E-05 -1.59466267E-01  3.11148633E-01  1.00781492E-01
  2.26494811E-04  1.29115836E-05  2.33851861E-01  4.20838520E-03  1.95442396E-04
  4.15796477E-06  3.71602690E-03  9.80286829E-04  2.98689903E-05  1.90901034E-04
  8.12236454E-03  2.45399982E-04 -1.65507582E-02  1.91529291E-06 -5.24052920E-06
  2.42070182E-05  8.40386370E-02  1.48576330E-02  8.38163790E-02  1.47637371E-02
  8.40386370E-02  1.48576330E-02  8.38163790E-02  1.47637371E-02 -4.60492006E-03
  8.92898196E-03 -2.81502913E-03  4.84316609E-05 -2.74687401E-05  6.39730954E-03
 -4.43541935E-04 -1.74822889E-04 -2.57136381E-05 -2.93943691E-04  2.50956588E-04
 -7.48279447E-05  4.74471447E-04  2.27370682E-04 -3.70321226E-04 -1.32857552E-04
 -4.47003863E-07 -5.84925434E-06 -2.32855125E-04 -4.60492006E-03  8.92898196E-03
  2.81502913E-03  4.84316609E-05 -2.74687401E-05  6.39730954E-03  4.43541935E-04
 -1.74822889E-04 -2.57136381E-05 -2.93943689E-04 -2.50956588E-04 -7.48279447E-05
  4.74471447E-04  2.27370682E-04 -3.70321226E-04 -1.32857552E-04  4.47003863E-07
  5.84925434E-06 -2.32855125E-04  2.36467420E-03  1.62637103E-03  2.44113986E-03
  3.73554305E-04  2.36467420E-03  1.62637103E-03  2.44113986E-03  3.73554305E-04
  4.71619810E-03 -9.00478674E-03  2.92300901E-03  1.23927546E-05  2.11877466E-04
 -6.74989132E-03  7.54300429E-04  4.35912416E-05 -5.62507829E-04  2.22878135E-03
 -6.05320113E-04  3.30406633E-04  1.59414559E-03 -2.19086641E-04  5.07336588E-05
  5.03534359E-04  7.36740162E-07 -1.74764481E-05  4.04344211E-08  4.71619810E-03
 -9.00478674E-03 -2.92300901E-03  1.23927546E-05  2.11877466E-04 -6.74989132E-03
 -7.54300429E-04  4.35912415E-05 -5.62507829E-04  2.22878135E-03  6.05320111E-04
  3.30406633E-04  1.59414559E-03 -2.19086641E-04  5.07336588E-05  5.03534359E-04
 -7.36740162E-07  1.74764481E-05  4.04344213E-08 -2.26446535E-03 -2.38201016E-03
 -2.35341985E-03 -1.74788454E-03 -2.26446535E-03 -2.38201016E-03 -2.35341985E-03
 -1.74788454E-03 -1.59526864E-01  3.10916130E-01 -1.00732847E-01 -6.38232430E-05
  4.37561664E-04  2.35134325E-01 -4.01994191E-03 -1.79698405E-04  2.04466595E-04
  2.14370692E-03 -3.20745479E-04 -1.39716252E-04  1.46634455E-03  8.06500481E-03
 -1.23946749E-02 -4.05229203E-03 -8.78303971E-06 -1.60302297E-05 -8.41003772E-03
 -1.59526864E-01  3.10916130E-01  1.00732847E-01 -6.38232430E-05  4.37561664E-04
  2.35134325E-01  4.01994191E-03 -1.79698405E-04  2.04466595E-04  2.14370694E-03
  3.20745484E-04 -1.39716252E-04  1.46634455E-03  8.06500481E-03 -1.23946749E-02
 -4.05229203E-03  8.78303971E-06  1.60302297E-05 -8.41003772E-03  8.36399728E-02
  1.55455146E-02  8.41545462E-02  1.45071447E-02  8.36399728E-02  1.55455146E-02
  8.41545462E-02  1.45071447E-02 -1.23709528E-01  2.49244126E-01  1.70304911E-01
  3.02321146E-04  2.73428740E-05  2.50248276E-01  6.24910819E-02  2.83513034E-04
  1.72929602E-05 -2.88532699E-02  1.64208881E-02  1.32936255E-04  1.01378694E-03
 -8.41776408E-03  1.36173296E-02 -1.15204692E-02  3.50511850E-05  7.96268882E-06
  2.13911412E-05  1.23709528E-01 -2.49244126E-01  1.70304911E-01 -3.02321146E-04
 -2.73428741E-05 -2.50248276E-01  6.24910819E-02 -2.83513034E-04 -1.72929602E-05
  2.88532699E-02  1.64208881E-02 -1.32936255E-04 -1.01378694E-03  8.41776408E-03
 -1.36173296E-02  1.15204692E-02  3.50511850E-05  7.96268882E-06 -2.13911412E-05
  1.45758918E-01  5.84836109E-02  1.45298885E-01  5.80282379E-02 -1.45758918E-01
 -5.84836109E-02 -1.45298885E-01 -5.80282379E-02 -5.35773645E-03  1.07939680E-02
  7.36912862E-03  1.07594862E-04 -1.41482577E-04  1.04352144E-02  2.50470179E-03
 -5.60451420E-04  5.08560272E-04 -4.76044346E-03  1.13854145E-03 -3.53113939E-04
  2.09827075E-03 -3.69041214E-04 -2.29926507E-04  3.12788668E-04  1.42500744E-05
 -1.05484971E-05 -5.38440822E-04  5.35773645E-03 -1.07939680E-02  7.36912862E-03
 -1.07594862E-04  1.41482577E-04 -1.04352144E-02  2.50470179E-03  5.60451420E-04
 -5.08560272E-04  4.76044346E-03  1.13854145E-03  3.53113939E-04 -2.09827075E-03
  3.69041214E-04  2.29926507E-04 -3.12788668E-04  1.42500745E-05 -1.05484971E-05
  5.38440822E-04  6.34752104E-03  4.26227160E-03  6.20396860E-03  2.11123574E-03
 -6.34752104E-03 -4.26227160E-03 -6.20396860E-03 -2.11123574E-03  5.45575006E-03