A_B_75                                                                  
SP        RB3LYP                                                      6-31+G(d)           
Number of atoms                            I               12
Info1-9                                    I   N=           9
          23          23           0           0           0         110
           1          18        -502
Charge                                     I                0
Multiplicity                               I                1
Number of electrons                        I               32
Number of alpha electrons                  I               16
Number of beta electrons                   I               16
Number of basis functions                  I               92
Number of independent functions            I               92
Number of point charges in /Mol/           I                0
Number of translation vectors              I                0
Atomic numbers                             I   N=          12
           6           6           1           1           1           1
           6           6           1           1           1           1
Nuclear charges                            R   N=          12
  6.00000000E+00  6.00000000E+00  1.00000000E+00  1.00000000E+00  1.00000000E+00
  1.00000000E+00  6.00000000E+00  6.00000000E+00  1.00000000E+00  1.00000000E+00
  1.00000000E+00  1.00000000E+00
Current cartesian coordinates              R   N=          36
  1.27131137E+00  0.00000000E+00  0.00000000E+00 -1.27131137E+00  0.00000000E+00
  0.00000000E+00  2.34821716E+00  1.76652733E+00  0.00000000E+00  2.34821716E+00
 -1.76652733E+00  0.00000000E+00 -2.34821716E+00  1.76652733E+00  0.00000000E+00
 -2.34821716E+00 -1.76652733E+00  0.00000000E+00  1.27131137E+00  0.00000000E+00
  9.44863066E+00 -1.27131137E+00  0.00000000E+00  9.44863066E+00  2.34821716E+00
  4.57211679E-01  7.74229678E+00  2.34821716E+00 -4.57211679E-01  1.11549645E+01
 -2.34821716E+00  4.57211679E-01  7.74229678E+00 -2.34821716E+00 -4.57211679E-01
  1.11549645E+01
Force Field                                I                0
Int Atom Types                             I   N=          12
           0           0           0           0           0           0
           0           0           0           0           0           0
MM charges                                 R   N=          12
  0.00000000E+00  0.00000000E+00  0.00000000E+00  0.00000000E+00  0.00000000E+00
  0.00000000E+00  0.00000000E+00  0.00000000E+00  0.00000000E+00  0.00000000E+00
  0.00000000E+00  0.00000000E+00
Integer atomic weights                     I   N=          12
          12          12           1           1           1           1
          12          12           1           1           1           1
Real atomic weights                        R   N=          12
  1.20000000E+01  1.20000000E+01  1.00782504E+00  1.00782504E+00  1.00782504E+00
  1.00782504E+00  1.20000000E+01  1.20000000E+01  1.00782504E+00  1.00782504E+00
  1.00782504E+00  1.00782504E+00
Atom fragment info                         I   N=          12
           0           0           0           0           0           0
           0           0           0           0           0           0
Atom residue num                           I   N=          12
           0           0           0           0           0           0
           0           0           0           0           0           0
Nuclear spins                              I   N=          12
           0           0           1           1           1           1
           0           0           1           1           1           1
Nuclear ZEff                               R   N=          12
 -3.60000000E+00 -3.60000000E+00 -1.00000000E+00 -1.00000000E+00 -1.00000000E+00
 -1.00000000E+00 -3.60000000E+00 -3.60000000E+00 -1.00000000E+00 -1.00000000E+00
 -1.00000000E+00 -1.00000000E+00
Nuclear ZNuc                               R   N=          12
  6.00000000E+00  6.00000000E+00  1.00000000E+00  1.00000000E+00  1.00000000E+00
  1.00000000E+00  6.00000000E+00  6.00000000E+00  1.00000000E+00  1.00000000E+00
  1.00000000E+00  1.00000000E+00
Nuclear QMom                               R   N=          12
  0.00000000E+00  0.00000000E+00  0.00000000E+00  0.00000000E+00  0.00000000E+00
  0.00000000E+00  0.00000000E+00  0.00000000E+00  0.00000000E+00  0.00000000E+00
  0.00000000E+00  0.00000000E+00
Nuclear GFac                               R   N=          12
  0.00000000E+00  0.00000000E+00  2.79284600E+00  2.79284600E+00  2.79284600E+00
  2.79284600E+00  0.00000000E+00  0.00000000E+00  2.79284600E+00  2.79284600E+00
  2.79284600E+00  2.79284600E+00
MicOpt                                     I   N=          12
          -1          -1          -1          -1          -1          -1
          -1          -1          -1          -1          -1          -1
Number of contracted shells                I               36
Number of primitive shells                 I               80
Pure/Cartesian d shells                    I                1
Pure/Cartesian f shells                    I                0
Highest angular momentum                   I                2
Largest degree of contraction              I                6
Shell types                                I   N=          36
           0          -1          -1          -1           2           0
          -1          -1          -1           2           0           0
           0           0           0           0           0           0
           0          -1          -1          -1           2           0
          -1          -1          -1           2           0           0
           0           0           0           0           0           0
Number of primitives per shell             I   N=          36
           6           3           1           1           1           6
           3           1           1           1           3           1
           3           1           3           1           3           1
           6           3           1           1           1           6
           3           1           1           1           3           1
           3           1           3           1           3           1
Shell to atom map                          I   N=          36
           1           1           1           1           1           2
           2           2           2           2           3           3
           4           4           5           5           6           6
           7           7           7           7           7           8
           8           8           8           8           9           9
          10          10          11          11          12          12
Primitive exponents                        R   N=          80
  3.04752488E+03  4.57369518E+02  1.03948685E+02  2.92101553E+01  9.28666296E+00
  3.16392696E+00  7.86827235E+00  1.88128854E+00  5.44249258E-01  1.68714478E-01
  4.38000000E-02  8.00000000E-01  3.04752488E+03  4.57369518E+02  1.03948685E+02
  2.92101553E+01  9.28666296E+00  3.16392696E+00  7.86827235E+00  1.88128854E+00
  5.44249258E-01  1.68714478E-01  4.38000000E-02  8.00000000E-01  1.87311370E+01
  2.82539436E+00  6.40121692E-01  1.61277759E-01  1.87311370E+01  2.82539436E+00
  6.40121692E-01  1.61277759E-01  1.87311370E+01  2.82539436E+00  6.40121692E-01
  1.61277759E-01  1.87311370E+01  2.82539436E+00  6.40121692E-01  1.61277759E-01
  3.04752488E+03  4.57369518E+02  1.03948685E+02  2.92101553E+01  9.28666296E+00
  3.16392696E+00  7.86827235E+00  1.88128854E+00  5.44249258E-01  1.68714478E-01
  4.38000000E-02  8.00000000E-01  3.04752488E+03  4.57369518E+02  1.03948685E+02
  2.92101553E+01  9.28666296E+00  3.16392696E+00  7.86827235E+00  1.88128854E+00
  5.44249258E-01  1.68714478E-01  4.38000000E-02  8.00000000E-01  1.87311370E+01
  2.82539436E+00  6.40121692E-01  1.61277759E-01  1.87311370E+01  2.82539436E+00
  6.40121692E-01  1.61277759E-01  1.87311370E+01  2.82539436E+00  6.40121692E-01
  1.61277759E-01  1.87311370E+01  2.82539436E+00  6.40121692E-01  1.61277759E-01
Contraction coefficients                   R   N=          80
  1.83473713E-03  1.40373228E-02  6.88426223E-02  2.32184443E-01  4.67941348E-01
  3.62311985E-01 -1.19332420E-01 -1.60854152E-01  1.14345644E+00  1.00000000E+00
  1.00000000E+00  1.00000000E+00  1.83473713E-03  1.40373228E-02  6.88426223E-02
  2.32184443E-01  4.67941348E-01  3.62311985E-01 -1.19332420E-01 -1.60854152E-01
  1.14345644E+00  1.00000000E+00  1.00000000E+00  1.00000000E+00  3.34946043E-02
  2.34726953E-01  8.13757326E-01  1.00000000E+00  3.34946043E-02  2.34726953E-01
  8.13757326E-01  1.00000000E+00  3.34946043E-02  2.34726953E-01  8.13757326E-01
  1.00000000E+00  3.34946043E-02  2.34726953E-01  8.13757326E-01  1.00000000E+00
  1.83473713E-03  1.40373228E-02  6.88426223E-02  2.32184443E-01  4.67941348E-01
  3.62311985E-01 -1.19332420E-01 -1.60854152E-01  1.14345644E+00  1.00000000E+00
  1.00000000E+00  1.00000000E+00  1.83473713E-03  1.40373228E-02  6.88426223E-02
  2.32184443E-01  4.67941348E-01  3.62311985E-01 -1.19332420E-01 -1.60854152E-01
  1.14345644E+00  1.00000000E+00  1.00000000E+00  1.00000000E+00  3.34946043E-02
  2.34726953E-01  8.13757326E-01  1.00000000E+00  3.34946043E-02  2.34726953E-01
  8.13757326E-01  1.00000000E+00  3.34946043E-02  2.34726953E-01  8.13757326E-01
  1.00000000E+00  3.34946043E-02  2.34726953E-01  8.13757326E-01  1.00000000E+00
P(S=P) Contraction coefficients            R   N=          80
  0.00000000E+00  0.00000000E+00  0.00000000E+00  0.00000000E+00  0.00000000E+00
  0.00000000E+00  6.89990666E-02  3.16423961E-01  7.44308291E-01  1.00000000E+00
  1.00000000E+00  0.00000000E+00  0.00000000E+00  0.00000000E+00  0.00000000E+00
  0.00000000E+00  0.00000000E+00  0.00000000E+00  6.89990666E-02  3.16423961E-01
  7.44308291E-01  1.00000000E+00  1.00000000E+00  0.00000000E+00  0.00000000E+00
  0.00000000E+00  0.00000000E+00  0.00000000E+00  0.00000000E+00  0.00000000E+00
  0.00000000E+00  0.00000000E+00  0.00000000E+00  0.00000000E+00  0.00000000E+00
  0.00000000E+00  0.00000000E+00  0.00000000E+00  0.00000000E+00  0.00000000E+00
  0.00000000E+00  0.00000000E+00  0.00000000E+00  0.00000000E+00  0.00000000E+00
  0.00000000E+00  6.89990666E-02  3.16423961E-01  7.44308291E-01  1.00000000E+00
  1.00000000E+00  0.00000000E+00  0.00000000E+00  0.00000000E+00  0.00000000E+00
  0.00000000E+00  0.00000000E+00  0.00000000E+00  6.89990666E-02  3.16423961E-01
  7.44308291E-01  1.00000000E+00  1.00000000E+00  0.00000000E+00  0.00000000E+00
  0.00000000E+00  0.00000000E+00  0.00000000E+00  0.00000000E+00  0.00000000E+00
  0.00000000E+00  0.00000000E+00  0.00000000E+00  0.00000000E+00  0.00000000E+00
  0.00000000E+00  0.00000000E+00  0.00000000E+00  0.00000000E+00  0.00000000E+00
Coordinates of each shell                  R   N=         108
  1.27131137E+00  0.00000000E+00  0.00000000E+00  1.27131137E+00  0.00000000E+00
  0.00000000E+00  1.27131137E+00  0.00000000E+00  0.00000000E+00  1.27131137E+00
  0.00000000E+00  0.00000000E+00  1.27131137E+00  0.00000000E+00  0.00000000E+00
 -1.27131137E+00  0.00000000E+00  0.00000000E+00 -1.27131137E+00  0.00000000E+00
  0.00000000E+00 -1.27131137E+00  0.00000000E+00  0.00000000E+00 -1.27131137E+00
  0.00000000E+00  0.00000000E+00 -1.27131137E+00  0.00000000E+00  0.00000000E+00
  2.34821716E+00  1.76652733E+00  0.00000000E+00  2.34821716E+00  1.76652733E+00
  0.00000000E+00  2.34821716E+00 -1.76652733E+00  0.00000000E+00  2.34821716E+00
 -1.76652733E+00  0.00000000E+00 -2.34821716E+00  1.76652733E+00  0.00000000E+00
 -2.34821716E+00  1.76652733E+00  0.00000000E+00 -2.34821716E+00 -1.76652733E+00
  0.00000000E+00 -2.34821716E+00 -1.76652733E+00  0.00000000E+00  1.27131137E+00
  0.00000000E+00  9.44863066E+00  1.27131137E+00  0.00000000E+00  9.44863066E+00
  1.27131137E+00  0.00000000E+00  9.44863066E+00  1.27131137E+00  0.00000000E+00
  9.44863066E+00  1.27131137E+00  0.00000000E+00  9.44863066E+00 -1.27131137E+00
  0.00000000E+00  9.44863066E+00 -1.27131137E+00  0.00000000E+00  9.44863066E+00
 -1.27131137E+00  0.00000000E+00  9.44863066E+00 -1.27131137E+00  0.00000000E+00
  9.44863066E+00 -1.27131137E+00  0.00000000E+00  9.44863066E+00  2.34821716E+00
  4.57211679E-01  7.74229678E+00  2.34821716E+00  4.57211679E-01  7.74229678E+00
  2.34821716E+00 -4.57211679E-01  1.11549645E+01  2.34821716E+00 -4.57211679E-01
  1.11549645E+01 -2.34821716E+00  4.57211679E-01  7.74229678E+00 -2.34821716E+00
  4.57211679E-01  7.74229678E+00 -2.34821716E+00 -4.57211679E-01  1.11549645E+01
 -2.34821716E+00 -4.57211679E-01  1.11549645E+01
Constraint Structure                       R   N=          36
  1.27131137E+00  0.00000000E+00  0.00000000E+00 -1.27131137E+00  0.00000000E+00
  0.00000000E+00  2.34821716E+00  1.76652733E+00  0.00000000E+00  2.34821716E+00
 -1.76652733E+00  0.00000000E+00 -2.34821716E+00  1.76652733E+00  0.00000000E+00
 -2.34821716E+00 -1.76652733E+00  0.00000000E+00  1.27131137E+00  0.00000000E+00
  9.44863066E+00 -1.27131137E+00  0.00000000E+00  9.44863066E+00  2.34821716E+00
  4.57211679E-01  7.74229678E+00  2.34821716E+00 -4.57211679E-01  1.11549645E+01
 -2.34821716E+00  4.57211679E-01  7.74229678E+00 -2.34821716E+00 -4.57211679E-01
  1.11549645E+01
Num ILSW                                   I              100
ILSW                                       I   N=         100
           0           1           0           0           2           0
           0           0           0           0         402          -1
           5           0           0           0           0           0
           0           0           1           0           0           0
           1           1           0           0           0           0
           0           0      100000           0          -1           0
           0           0           0           0           0           0
           0           0           0           1           0           0
           0           0           1           0           0           0
           0           0           4          41           0           0
           0           0           5           0           0           0
           0           0           0           0           0           0
           0           0           0           0           0           0
           0           0           0           0           0           0
           0           0           0           0           0           0
           0           0           0           0           0           0
           0           0           0           0
Num RLSW                                   I               41
RLSW                                       R   N=          41
  8.00000000E-01  7.20000000E-01  1.00000000E+00  8.10000000E-01  2.00000000E-01
  0.00000000E+00  0.00000000E+00  1.00000000E+00  0.00000000E+00  0.00000000E+00
  0.00000000E+00  0.00000000E+00  1.00000000E+00  0.00000000E+00  0.00000000E+00
  0.00000000E+00  0.00000000E+00  1.00000000E+00  0.00000000E+00  0.00000000E+00
  0.00000000E+00  0.00000000E+00  1.00000000E+00  0.00000000E+00  0.00000000E+00
  0.00000000E+00  0.00000000E+00  1.00000000E+00  0.00000000E+00  0.00000000E+00
  0.00000000E+00  0.00000000E+00  1.00000000E+00  0.00000000E+00  0.00000000E+00
  0.00000000E+00  0.00000000E+00  0.00000000E+00  1.00000000E+00  1.00000000E+00
  0.00000000E+00
MxBond                                     I                3
NBond                                      I   N=          12
           3           3           1           1           1           1
           3           3           1           1           1           1
IBond                                      I   N=          36
           2           3           4           1           5           6
           1           0           0           1           0           0
           2           0           0           2           0           0
           8           9          10           7          11          12
           7           0           0           7           0           0
           8           0           0           8           0           0
RBond                                      R   N=          36
  2.00000000E+00  1.00000000E+00  1.00000000E+00  2.00000000E+00  1.00000000E+00
  1.00000000E+00  1.00000000E+00  0.00000000E+00  0.00000000E+00  1.00000000E+00
  0.00000000E+00  0.00000000E+00  1.00000000E+00  0.00000000E+00  0.00000000E+00
  1.00000000E+00  0.00000000E+00  0.00000000E+00  2.00000000E+00  1.00000000E+00
  1.00000000E+00  2.00000000E+00  1.00000000E+00  1.00000000E+00  1.00000000E+00
  0.00000000E+00  0.00000000E+00  1.00000000E+00  0.00000000E+00  0.00000000E+00
  1.00000000E+00  0.00000000E+00  0.00000000E+00  1.00000000E+00  0.00000000E+00
  0.00000000E+00
Virial Ratio                               R      2.011857437955848E+00
SCF Energy                                 R     -1.571860611857282E+02
Total Energy                               R     -1.571860611857282E+02
RMS Density                                R      4.029455257415031E-09
External E-field                           R   N=          35
  0.00000000E+00  0.00000000E+00  0.00000000E+00  0.00000000E+00  0.00000000E+00
  0.00000000E+00  0.00000000E+00  0.00000000E+00  0.00000000E+00  0.00000000E+00
  0.00000000E+00  0.00000000E+00  0.00000000E+00  0.00000000E+00  0.00000000E+00
  0.00000000E+00  0.00000000E+00  0.00000000E+00  0.00000000E+00  0.00000000E+00
  0.00000000E+00  0.00000000E+00  0.00000000E+00  0.00000000E+00  0.00000000E+00
  0.00000000E+00  0.00000000E+00  0.00000000E+00  0.00000000E+00  0.00000000E+00
  0.00000000E+00  0.00000000E+00  0.00000000E+00  0.00000000E+00  0.00000000E+00
IOpCl                                      I                0
IROHF                                      I                0
Alpha Orbital Energies                     R   N=          92
 -1.01999304E+01 -1.01991236E+01 -1.01958287E+01 -1.01950206E+01 -7.63373747E-01
 -7.59205834E-01 -5.85740553E-01 -5.81720366E-01 -4.73881300E-01 -4.69706071E-01
 -4.23960956E-01 -4.19933199E-01 -3.64393696E-01 -3.60313238E-01 -2.77469159E-01
 -2.73153338E-01 -1.25207459E-02 -7.02355584E-03  1.30694666E-02  2.33240387E-02
  3.26896734E-02  4.34249763E-02  4.35205602E-02  6.02741406E-02  7.66765280E-02
  7.75769075E-02  8.58893320E-02  9.28625655E-02  1.02897424E-01  1.19086201E-01
  1.32810515E-01  1.44689374E-01  1.51290011E-01  1.69377185E-01  1.76654719E-01
  1.92110889E-01  1.96839905E-01  2.34098079E-01  2.40549282E-01  2.72578393E-01
  3.43862575E-01  3.45396171E-01  3.50591670E-01  3.70068010E-01  5.78542264E-01
  5.84621024E-01  6.57441526E-01  6.64991960E-01  6.79728051E-01  7.02237741E-01
  7.23070107E-01  7.27419329E-01  7.56005147E-01  7.86788867E-01  8.29738636E-01
  8.66592613E-01  8.99972993E-01  9.10994573E-01  9.35185045E-01  9.44409009E-01
  9.55382999E-01  9.93200598E-01  1.04152349E+00  1.05311825E+00  1.16354608E+00
  1.17542565E+00  1.21856724E+00  1.22717167E+00  1.44697280E+00  1.45059018E+00
  1.53773174E+00  1.54260072E+00  1.81521369E+00  1.81953461E+00  1.88416787E+00
  1.89082039E+00  1.99880322E+00  2.00835850E+00  2.10728365E+00  2.11162504E+00
  2.29308265E+00  2.29863215E+00  2.36965937E+00  2.37299542E+00  2.66381999E+00
  2.66897343E+00  2.69900151E+00  2.70908938E+00  4.11640748E+00  4.15061957E+00
  4.24986744E+00  4.26911795E+00
Alpha MO coefficients                      R   N=        8464
  7.01851803E-01  3.45309489E-02  1.66548048E-04  2.00198375E-06  2.06065278E-05
 -6.26621232E-03 -2.33309654E-04 -6.77154184E-07 -6.08116256E-05  7.72729365E-04
 -8.15542700E-04  2.62938996E-06  1.17401115E-04 -6.66073338E-03 -6.68070867E-03
 -6.89200486E-03  8.78199846E-08 -2.75275862E-06  7.27607607E-08  7.01851805E-01
  3.45309490E-02 -1.66548047E-04  2.00198376E-06  2.06065278E-05 -6.26621236E-03
  2.33309648E-04 -6.77154189E-07 -6.08116256E-05  7.72729422E-04  8.15542715E-04
  2.62938996E-06  1.17401115E-04 -6.66073340E-03 -6.68070869E-03 -6.89200488E-03
 -8.78199851E-08  2.75275862E-06  7.27607605E-08 -1.81877203E-04  8.86957715E-04
 -1.82530340E-04  8.91445215E-04 -1.81877203E-04  8.86957718E-04 -1.82530340E-04
  8.91445218E-04 -1.56996311E-04 -4.42931032E-05 -1.23849807E-05 -5.61227289E-07
 -7.29696505E-06  2.84978539E-04  7.68356358E-05 -6.06627819E-07  2.15080453E-06
 -1.15606942E-04  9.64870574E-05  1.24086251E-07  1.13698754E-04 -1.79249231E-05
 -1.71794401E-05 -1.40726572E-05 -9.37436505E-07  2.30148928E-06 -4.12714614E-06
 -1.56996311E-04 -4.42931031E-05  1.23849807E-05 -5.61227298E-07 -7.29696505E-06
  2.84978539E-04 -7.68356359E-05 -6.06627752E-07  2.15080443E-06 -1.15606944E-04
 -9.64870578E-05  1.24086294E-07  1.13698754E-04 -1.79249231E-05 -1.71794401E-05
 -1.40726572E-05  9.37436509E-07 -2.30148928E-06 -4.12714614E-06  1.44870573E-05
 -1.06389580E-04 -4.08222014E-06 -9.79177845E-05  1.44870574E-05 -1.06389580E-04
 -4.08222016E-06 -9.79177844E-05  7.02152874E-01  3.51998548E-02 -3.28322690E-04
  1.95996572E-06  2.56867784E-06 -1.29555660E-02  2.35195044E-03 -1.37704128E-06
 -8.81319695E-06  1.99366196E-02 -5.37091778E-03  2.03871559E-06  2.04236971E-05
 -6.23706641E-03 -6.50667266E-03 -6.75415358E-03 -6.59333412E-08  4.08826327E-07
  7.87243963E-08 -7.02152872E-01 -3.51998547E-02 -3.28322690E-04 -1.95996571E-06
 -2.56867779E-06  1.29555660E-02  2.35195044E-03  1.37704128E-06  8.81319678E-06
 -1.99366196E-02 -5.37091778E-03 -2.03871558E-06 -2.04236968E-05  6.23706640E-03
  6.50667264E-03  6.75415356E-03 -6.59333415E-08  4.08826335E-07 -7.87243962E-08
 -1.00035043E-04  1.15306449E-03 -9.99225199E-05  1.15329209E-03  1.00035043E-04
 -1.15306449E-03  9.99225194E-05 -1.15329208E-03  8.44602095E-06 -1.15876746E-06
 -2.51071079E-07 -2.86621798E-06 -1.79497504E-06  1.95819975E-05  2.72872195E-05
  2.35147679E-05 -3.42357474E-05 -6.92045580E-04  1.95392939E-04  1.47198937E-05
 -7.74146245E-05  1.20798763E-07  9.70829482E-07  8.29572284E-07 -1.10794260E-06
 -2.06401749E-07 -7.23814006E-07 -8.44602277E-06  1.15876726E-06 -2.51071043E-07
  2.86621798E-06  1.79497502E-06 -1.95819967E-05  2.72872193E-05 -2.35147679E-05
  3.42357474E-05  6.92045579E-04  1.95392938E-04 -1.47198937E-05  7.74146248E-05
 -1.20798800E-07 -9.70829515E-07 -8.29572308E-07 -1.10794260E-06 -2.06401755E-07
  7.23813995E-07  1.33701955E-05 -1.14083187E-04 -6.26857618E-06  3.88213514E-05
 -1.33701954E-05  1.14083186E-04  6.26857617E-06 -3.88213517E-05  1.37199879E-04
 -3.75459642E-05  2.89456548E-05 -7.64430301E-07 -3.19951686E-05 -4.27520647E-05
 -1.86444869E-04 -5.05810469E-06  1.34222710E-04 -6.12836623E-04  2.16424107E-04
 -2.68268381E-05 -3.81057455E-04 -9.22177277E-06 -2.70266448E-05 -3.83991300E-06
  2.82708764E-07  7.38475034E-06 -1.02962539E-07  1.37199877E-04 -3.75459642E-05
 -2.89456548E-05 -7.64430227E-07 -3.19951688E-05 -4.27520691E-05  1.86444867E-04
 -5.05810560E-06  1.34222711E-04 -6.12836770E-04 -2.16424143E-04 -2.68268396E-05
 -3.81057466E-04 -9.22177292E-06 -2.70266447E-05 -3.83991280E-06 -2.82708772E-07
 -7.38475034E-06 -1.02962541E-07 -6.76552255E-05  4.77199300E-04 -5.49014658E-05
  4.16807360E-04 -6.76552263E-05  4.77199306E-04 -5.49014665E-05  4.16807365E-04
  7.01875299E-01  3.46061965E-02  1.89228746E-04 -6.12965776E-06 -1.61661497E-05
 -6.81853558E-03 -3.80115833E-04  2.58069572E-05  4.36785108E-05  9.29487070E-04
 -9.14702337E-04  1.68131960E-05 -3.83352248E-04 -6.61503844E-03 -6.82505091E-03
 -6.65353011E-03  1.25038555E-07  6.34605248E-06 -5.35935665E-05  7.01875312E-01
  3.46061972E-02 -1.89228741E-04 -6.12965785E-06 -1.61661496E-05 -6.81853582E-03
  3.80115794E-04  2.58069580E-05  4.36785094E-05  9.29487480E-04  9.14702446E-04
  1.68131967E-05 -3.83352259E-04 -6.61503855E-03 -6.82505103E-03 -6.65353023E-03
 -1.25038535E-07 -6.34605250E-06 -5.35935677E-05 -1.53608909E-04  9.19820940E-04
 -2.32147420E-04  1.27603202E-03 -1.53608911E-04  9.19820959E-04 -2.32147422E-04
  1.27603205E-03 -7.21532908E-06  2.74847901E-06  6.85267180E-08  4.02016241E-06
 -8.66704388E-06 -2.41479847E-04  7.05378944E-05 -4.99820582E-05  6.42649847E-05
 -8.14207053E-03  1.99979711E-03 -8.12198449E-05 -6.13706726E-04 -9.26704947E-06
  5.05772385E-06  9.93997833E-06  3.92615955E-07 -5.30642229E-09 -5.63186743E-08
  7.21533178E-06 -2.74847969E-06  6.85261908E-08 -4.02016243E-06  8.66704330E-06
  2.41479846E-04  7.05378978E-05  4.99820581E-05 -6.42649822E-05  8.14207052E-03
  1.99979711E-03  8.12198445E-05  6.13706719E-04  9.26704930E-06 -5.05772434E-06
 -9.93997840E-06  3.92615950E-07 -5.30655606E-09  5.63186721E-08 -4.37902842E-05
  3.41632060E-04 -4.01058083E-05  2.46702826E-04  4.37902829E-05 -3.41632051E-04
  4.01058073E-05 -2.46702818E-04  7.02160114E-01  3.52180748E-02 -3.15244239E-04
 -4.75087067E-06  8.42203421E-06 -1.30134825E-02  2.16712169E-03  3.99907624E-05
 -7.87490764E-05  2.25323434E-02 -5.96883268E-03  3.55573936E-05 -6.03259234E-04
 -6.20268336E-03 -6.72341802E-03 -6.51428593E-03 -1.06183550E-06  1.02063655E-06
 -6.87968496E-05 -7.02160101E-01 -3.52180741E-02 -3.15244242E-04  4.75087055E-06
 -8.42203450E-06  1.30134824E-02  2.16712170E-03 -3.99907619E-05  7.87490772E-05
 -2.25323434E-02 -5.96883266E-03 -3.55573933E-05  6.03259227E-04  6.20268324E-03
  6.72341789E-03  6.51428581E-03 -1.06183550E-06  1.02063644E-06  6.87968487E-05
 -8.49462133E-05  1.06903975E-03 -1.04481445E-04  1.32587521E-03  8.49462105E-05
 -1.06903973E-03  1.04481441E-04 -1.32587518E-03 -1.59491041E-01  3.11164148E-01
 -1.00828652E-01  1.36639558E-04  6.65330427E-05  2.33995342E-01 -4.18996311E-03
  1.18117484E-04  1.06610905E-04  3.73576192E-03 -9.94306529E-04  1.41619605E-05
  1.92979631E-04  8.12028686E-03  2.33554011E-04 -1.65468582E-02 -1.08864910E-06
  2.44163920E-06  1.48916660E-05 -1.59491041E-01  3.11164148E-01  1.00828652E-01
  1.36639558E-04  6.65330427E-05  2.33995342E-01  4.18996311E-03  1.18117484E-04
  1.06610905E-04  3.73576195E-03  9.94306536E-04  1.41619604E-05  1.92979631E-04
  8.12028686E-03  2.33554011E-04 -1.65468582E-02  1.08864911E-06 -2.44163920E-06
  1.48916660E-05  8.39801045E-02  1.47609312E-02  8.38471963E-02  1.46985951E-02
  8.39801045E-02  1.47609312E-02  8.38471963E-02  1.46985951E-02 -3.91601283E-03
  7.60495257E-03 -2.37024218E-03  2.98702307E-05 -5.60257806E-05  5.26811824E-03
 -4.73218007E-04 -1.03975774E-04  5.76906035E-05 -3.32840809E-04  2.44395200E-04
 -4.21645033E-05  4.98687640E-04  1.95462106E-04 -3.83868379E-04 -4.31271422E-05
 -6.83174185E-07 -4.05997290E-06 -1.11939228E-04 -3.91601283E-03  7.60495257E-03
  2.37024218E-03  2.98702307E-05 -5.60257806E-05  5.26811824E-03  4.73218007E-04
 -1.03975774E-04  5.76906035E-05 -3.32840812E-04 -2.44395201E-04 -4.21645033E-05
  4.98687640E-04  1.95462106E-04 -3.83868379E-04 -4.31271422E-05  6.83174185E-07
  4.05997290E-06 -1.11939228E-04  2.02412358E-03  1.73924820E-03  2.08124686E-03
  3.13149564E-04  2.02412358E-03  1.73924820E-03  2.08124687E-03  3.13149564E-04
  4.05162465E-03 -7.62635516E-03  2.47622540E-03  8.34286749E-06  2.76366587E-04
 -5.77818182E-03  9.14307130E-04  2.72267384E-05 -7.76015625E-04  2.84805367E-03
 -8.41363541E-04  1.99144275E-04  2.05518487E-03 -1.74476752E-04  7.46405817E-05
  4.45254100E-04  4.89629714E-07 -2.29210665E-05  1.55282743E-07  4.05162465E-03
 -7.62635516E-03 -2.47622540E-03  8.34286749E-06  2.76366587E-04 -5.77818182E-03
 -9.14307130E-04  2.72267384E-05 -7.76015625E-04  2.84805367E-03  8.41363541E-04
  1.99144275E-04  2.05518487E-03 -1.74476752E-04  7.46405817E-05  4.45254100E-04
 -4.89629715E-07  2.29210665E-05  1.55282743E-07 -1.88226489E-03 -2.60770693E-03
 -1.93653135E-03 -2.22720626E-03 -1.88226489E-03 -2.60770693E-03 -1.93653135E-03
 -2.22720626E-03 -1.59573870E-01  3.10835154E-01 -1.00781366E-01 -3.64593604E-05
  4.95044832E-04  2.35954404E-01 -3.77625256E-03 -1.04853021E-04  1.78207829E-04
  1.96857570E-03 -1.76147262E-04 -8.45351982E-05  1.85535167E-03  8.03783063E-03
 -1.55134743E-02 -9.94326190E-04 -4.20130331E-06 -1.88709862E-05 -4.86304666E-03
 -1.59573871E-01  3.10835154E-01  1.00781366E-01 -3.64593604E-05  4.95044832E-04
  2.35954404E-01  3.77625256E-03 -1.04853021E-04  1.78207829E-04  1.96857571E-03
  1.76147265E-04 -8.45351982E-05  1.85535167E-03  8.03783063E-03 -1.55134743E-02
 -9.94326190E-04  4.20130331E-06  1.88709862E-05 -4.86304666E-03  8.35906408E-02
  1.52589378E-02  8.42082243E-02  1.40514826E-02  8.35906408E-02  1.52589378E-02
  8.42082243E-02  1.40514826E-02 -1.23746741E-01  2.49277109E-01  1.70337817E-01
  1.82707147E-04  7.09300641E-05  2.50612664E-01  6.24751133E-02  1.69098827E-04
  1.87474372E-04 -2.81641471E-02  1.62478055E-02  6.64906580E-05  1.07048973E-03
 -8.42779382E-03  1.36148812E-02 -1.15199580E-02  2.12692778E-05  1.40815667E-05
  1.31839419E-05  1.23746741E-01 -2.49277109E-01  1.70337817E-01 -1.82707147E-04
 -7.09300641E-05 -2.50612664E-01  6.24751133E-02 -1.69098827E-04 -1.87474372E-04
  2.81641471E-02  1.62478055E-02 -6.64906580E-05 -1.07048973E-03  8.42779382E-03
 -1.36148812E-02  1.15199580E-02  2.12692778E-05  1.40815667E-05 -1.31839419E-05
  1.45674839E-01  5.82895140E-02  1.45398227E-01  5.80073051E-02 -1.45674839E-01
 -5.82895140E-02 -1.45398227E-01 -5.80073051E-02 -4.80575204E-03  9.69665243E-03
  6.61394725E-03  6.76604438E-05 -2.07331307E-04  9.24315533E-03  2.16155993E-03
 -3.42890067E-04  8.05522581E-04 -4.83789695E-03  1.10712401E-03 -2.07531208E-04
  2.27122114E-03 -3.28319773E-04 -3.79927847E-04  4.55877109E-04  8.28948949E-06
 -1.66072712E-05 -2.77067393E-04  4.80575204E-03 -9.69665243E-03  6.61394725E-03
 -6.76604438E-05  2.07331307E-04 -9.24315533E-03  2.16155993E-03  3.42890067E-04
 -8.05522581E-04  4.83789695E-03  1.10712401E-03  2.07531208E-04 -2.27122114E-03
  3.28319773E-04  3.79927847E-04 -4.55877109E-04  8.28948949E-06 -1.66072712E-05
  2.77067393E-04  5.74897921E-03  4.27822677E-03  5.53721155E-03  1.75287326E-03
 -5.74897921E-03 -4.27822677E-03 -5.53721155E-03 -1.75287326E-03  4.92282778E-03