 Entering Gaussian System, Link 0=g09
 Input=A_B_75.gjf
 Output=A_B_75.log
 Initial command:
 /opt/share/GAUSSIAN/v09-D.01.app/g09/l1.exe "/tmp/Gau-15378.inp" -scrdir="/tmp/"
 Entering Link 1 = /opt/share/GAUSSIAN/v09-D.01.app/g09/l1.exe PID=     15379.
  
 Copyright (c) 1988,1990,1992,1993,1995,1998,2003,2009,2013,
            Gaussian, Inc.  All Rights Reserved.
  
 This is part of the Gaussian(R) 09 program.  It is based on
 the Gaussian(R) 03 system (copyright 2003, Gaussian, Inc.),
 the Gaussian(R) 98 system (copyright 1998, Gaussian, Inc.),
 the Gaussian(R) 94 system (copyright 1995, Gaussian, Inc.),
 the Gaussian 92(TM) system (copyright 1992, Gaussian, Inc.),
 the Gaussian 90(TM) system (copyright 1990, Gaussian, Inc.),
 the Gaussian 88(TM) system (copyright 1988, Gaussian, Inc.),
 the Gaussian 86(TM) system (copyright 1986, Carnegie Mellon
 University), and the Gaussian 82(TM) system (copyright 1983,
 Carnegie Mellon University). Gaussian is a federally registered
 trademark of Gaussian, Inc.
  
 This software contains proprietary and confidential information,
 including trade secrets, belonging to Gaussian, Inc.
  
 This software is provided under written license and may be
 used, copied, transmitted, or stored only in accord with that
 written license.
  
 The following legend is applicable only to US Government
 contracts under FAR:
  
                    RESTRICTED RIGHTS LEGEND
  
 Use, reproduction and disclosure by the US Government is
 subject to restrictions as set forth in subparagraphs (a)
 and (c) of the Commercial Computer Software - Restricted
 Rights clause in FAR 52.227-19.
  
 Gaussian, Inc.
 340 Quinnipiac St., Bldg. 40, Wallingford CT 06492
  
  
 ---------------------------------------------------------------
 Warning -- This program may not be used in any manner that
 competes with the business of Gaussian, Inc. or will provide
 assistance to any competitor of Gaussian, Inc.  The licensee
 of this program is prohibited from giving any competitor of
 Gaussian, Inc. access to this program.  By using this program,
 the user acknowledges that Gaussian, Inc. is engaged in the
 business of creating and licensing software in the field of
 computational chemistry and represents and warrants to the
 licensee that it is not a competitor of Gaussian, Inc. and that
 it will not use this program in any manner prohibited above.
 ---------------------------------------------------------------
  

 Cite this work as:
 Gaussian 09, Revision D.01,
 M. J. Frisch, G. W. Trucks, H. B. Schlegel, G. E. Scuseria, 
 M. A. Robb, J. R. Cheeseman, G. Scalmani, V. Barone, B. Mennucci, 
 G. A. Petersson, H. Nakatsuji, M. Caricato, X. Li, H. P. Hratchian, 
 A. F. Izmaylov, J. Bloino, G. Zheng, J. L. Sonnenberg, M. Hada, 
 M. Ehara, K. Toyota, R. Fukuda, J. Hasegawa, M. Ishida, T. Nakajima, 
 Y. Honda, O. Kitao, H. Nakai, T. Vreven, J. A. Montgomery, Jr., 
 J. E. Peralta, F. Ogliaro, M. Bearpark, J. J. Heyd, E. Brothers, 
 K. N. Kudin, V. N. Staroverov, T. Keith, R. Kobayashi, J. Normand, 
 K. Raghavachari, A. Rendell, J. C. Burant, S. S. Iyengar, J. Tomasi, 
 M. Cossi, N. Rega, J. M. Millam, M. Klene, J. E. Knox, J. B. Cross, 
 V. Bakken, C. Adamo, J. Jaramillo, R. Gomperts, R. E. Stratmann, 
 O. Yazyev, A. J. Austin, R. Cammi, C. Pomelli, J. W. Ochterski, 
 R. L. Martin, K. Morokuma, V. G. Zakrzewski, G. A. Voth, 
 P. Salvador, J. J. Dannenberg, S. Dapprich, A. D. Daniels, 
 O. Farkas, J. B. Foresman, J. V. Ortiz, J. Cioslowski, 
 and D. J. Fox, Gaussian, Inc., Wallingford CT, 2013.
 
 ******************************************
 Gaussian 09:  ES64L-G09RevD.01 24-Apr-2013
                18-Sep-2016 
 ******************************************
 % mem=4GB
 % nprocshared=4
 Will use up to    4 processors via shared memory.
 % chk=A_B_75.chk
 ------------------------------------------------
 # B3LYP/6-31+G* int=ultrafine nosymm pop=nboread
 ------------------------------------------------
 1/38=1/1;
 2/12=2,15=1,17=6,18=5,40=1/2;
 3/5=1,6=6,7=11,11=2,16=1,25=1,30=1,74=-5,75=-5/1,2,3;
 4//1;
 5/5=2,38=5/2;
 6/7=2,8=2,9=2,10=2,28=1,40=2/1,7;
 99/5=1,9=1/99;
 ------
 A_B_75
 ------
 Symbolic Z-matrix:
 Charge =  0 Multiplicity = 1
 C                     0.67275   0.        0. 
 C                    -0.67275   0.        0. 
 H                     1.24262   0.93481   0. 
 H                     1.24262  -0.93481   0. 
 H                    -1.24262   0.93481   0. 
 H                    -1.24262  -0.93481   0. 
 C                     0.67275   0.        5. 
 C                    -0.67275   0.        5. 
 H                     1.24262   0.24195   4.09705 
 H                     1.24262  -0.24195   5.90295 
 H                    -1.24262   0.24195   4.09705 
 H                    -1.24262  -0.24195   5.90295 
 
                          Input orientation:                          
 ---------------------------------------------------------------------
 Center     Atomic      Atomic             Coordinates (Angstroms)
 Number     Number       Type             X           Y           Z
 ---------------------------------------------------------------------
      1          6           0        0.672749    0.000000    0.000000
      2          6           0       -0.672749    0.000000    0.000000
      3          1           0        1.242623    0.934806    0.000000
      4          1           0        1.242623   -0.934806    0.000000
      5          1           0       -1.242623    0.934806    0.000000
      6          1           0       -1.242623   -0.934806    0.000000
      7          6           0        0.672749    0.000000    5.000000
      8          6           0       -0.672749    0.000000    5.000000
      9          1           0        1.242623    0.241946    4.097047
     10          1           0        1.242623   -0.241946    5.902953
     11          1           0       -1.242623    0.241946    4.097047
     12          1           0       -1.242623   -0.241946    5.902953
 ---------------------------------------------------------------------
                    Distance matrix (angstroms):
                    1          2          3          4          5
     1  C    0.000000
     2  C    1.345498   0.000000
     3  H    1.094814   2.131317   0.000000
     4  H    1.094814   2.131317   1.869612   0.000000
     5  H    2.131317   1.094814   2.485246   3.109967   0.000000
     6  H    2.131317   1.094814   3.109967   2.485246   1.869612
     7  C    5.000000   5.177873   5.118459   5.118459   5.435302
     8  C    5.177873   5.000000   5.435302   5.435302   5.118459
     9  H    4.143560   4.529126   4.155220   4.262692   4.841725
    10  H    5.935331   6.210639   6.019103   5.943476   6.511993
    11  H    4.529126   4.143560   4.841725   4.934267   4.155220
    12  H    6.210639   5.935331   6.511993   6.442155   6.019103
                    6          7          8          9         10
     6  H    0.000000
     7  C    5.435302   0.000000
     8  C    5.118459   1.345498   0.000000
     9  H    4.934267   1.094814   2.131317   0.000000
    10  H    6.442155   1.094814   2.131317   1.869612   0.000000
    11  H    4.262692   2.131317   1.094814   2.485246   3.109967
    12  H    5.943476   2.131317   1.094814   3.109967   2.485246
                   11         12
    11  H    0.000000
    12  H    1.869612   0.000000
 Symmetry turned off by external request.
 Stoichiometry    C4H8
 Framework group  CS[X(C4H8)]
 Deg. of freedom    15
 Full point group                 CS      NOp   2
 Rotational constants (GHZ):     13.3238147      1.4138973      1.3030128
 Standard basis: 6-31+G(d) (6D, 7F)
    92 basis functions,   160 primitive gaussians,    92 cartesian basis functions
    16 alpha electrons       16 beta electrons
       nuclear repulsion energy        92.5403478769 Hartrees.
 NAtoms=   12 NActive=   12 NUniq=   12 SFac= 1.00D+00 NAtFMM=   60 NAOKFM=F Big=F
 Integral buffers will be    131072 words long.
 Raffenetti 2 integral format.
 Two-electron integral symmetry is turned off.
 One-electron integrals computed using PRISM.
 NBasis=    92 RedAO= T EigKep=  1.68D-04  NBF=    92
 NBsUse=    92 1.00D-06 EigRej= -1.00D+00 NBFU=    92
 ExpMin= 4.38D-02 ExpMax= 3.05D+03 ExpMxC= 4.57D+02 IAcc=3 IRadAn=         5 AccDes= 0.00D+00
 Harris functional with IExCor=  402 and IRadAn=       5 diagonalized for initial guess.
 HarFok:  IExCor=  402 AccDes= 0.00D+00 IRadAn=         5 IDoV= 1 UseB2=F ITyADJ=14
 ICtDFT=  3500011 ScaDFX=  1.000000  1.000000  1.000000  1.000000
 FoFCou: FMM=F IPFlag=           0 FMFlag=      100000 FMFlg1=           0
         NFxFlg=           0 DoJE=T BraDBF=F KetDBF=T FulRan=T
         wScrn=  0.000000 ICntrl=     500 IOpCl=  0 I1Cent=   200000004 NGrid=           0
         NMat0=    1 NMatS0=      1 NMatT0=    0 NMatD0=    1 NMtDS0=    0 NMtDT0=    0
 Symmetry not used in FoFCou.
 Keep R1 ints in memory in canonical form, NReq=10115209.
 Requested convergence on RMS density matrix=1.00D-08 within 128 cycles.
 Requested convergence on MAX density matrix=1.00D-06.
 Requested convergence on             energy=1.00D-06.
 No special actions if energy rises.
 SCF Done:  E(RB3LYP) =  -157.186061186     A.U. after    9 cycles
            NFock=  9  Conv=0.40D-08     -V/T= 2.0119

 **********************************************************************

            Population analysis using the SCF density.

 **********************************************************************

 Alpha  occ. eigenvalues --  -10.19993 -10.19912 -10.19583 -10.19502  -0.76337
 Alpha  occ. eigenvalues --   -0.75921  -0.58574  -0.58172  -0.47388  -0.46971
 Alpha  occ. eigenvalues --   -0.42396  -0.41993  -0.36439  -0.36031  -0.27747
 Alpha  occ. eigenvalues --   -0.27315
 Alpha virt. eigenvalues --   -0.01252  -0.00702   0.01307   0.02332   0.03269
 Alpha virt. eigenvalues --    0.04342   0.04352   0.06027   0.07668   0.07758
 Alpha virt. eigenvalues --    0.08589   0.09286   0.10290   0.11909   0.13281
 Alpha virt. eigenvalues --    0.14469   0.15129   0.16938   0.17665   0.19211
 Alpha virt. eigenvalues --    0.19684   0.23410   0.24055   0.27258   0.34386
 Alpha virt. eigenvalues --    0.34540   0.35059   0.37007   0.57854   0.58462
 Alpha virt. eigenvalues --    0.65744   0.66499   0.67973   0.70224   0.72307
 Alpha virt. eigenvalues --    0.72742   0.75601   0.78679   0.82974   0.86659
 Alpha virt. eigenvalues --    0.89997   0.91099   0.93519   0.94441   0.95538
 Alpha virt. eigenvalues --    0.99320   1.04152   1.05312   1.16355   1.17543
 Alpha virt. eigenvalues --    1.21857   1.22717   1.44697   1.45059   1.53773
 Alpha virt. eigenvalues --    1.54260   1.81521   1.81953   1.88417   1.89082
 Alpha virt. eigenvalues --    1.99880   2.00836   2.10728   2.11163   2.29308
 Alpha virt. eigenvalues --    2.29863   2.36966   2.37300   2.66382   2.66897
 Alpha virt. eigenvalues --    2.69900   2.70909   4.11641   4.15062   4.24987
 Alpha virt. eigenvalues --    4.26912
          Condensed to atoms (all electrons):
               1          2          3          4          5          6
     1  C    5.019525   0.660658   0.383469   0.382216  -0.037787  -0.036211
     2  C    0.660658   5.019525  -0.037787  -0.036211   0.383469   0.382216
     3  H    0.383469  -0.037787   0.506809  -0.033147  -0.006636   0.003938
     4  H    0.382216  -0.036211  -0.033147   0.505327   0.003938  -0.006619
     5  H   -0.037787   0.383469  -0.006636   0.003938   0.506809  -0.033147
     6  H   -0.036211   0.382216   0.003938  -0.006619  -0.033147   0.505327
     7  C   -0.000785  -0.001440  -0.000078  -0.000023   0.000084   0.000046
     8  C   -0.001440  -0.000785   0.000084   0.000046  -0.000078  -0.000023
     9  H    0.001517  -0.000950  -0.000003  -0.000004   0.000000   0.000000
    10  H    0.000047   0.000005   0.000000   0.000000   0.000000   0.000000
    11  H   -0.000950   0.001517   0.000000   0.000000  -0.000003  -0.000004
    12  H    0.000005   0.000047   0.000000   0.000000   0.000000   0.000000
               7          8          9         10         11         12
     1  C   -0.000785  -0.001440   0.001517   0.000047  -0.000950   0.000005
     2  C   -0.001440  -0.000785  -0.000950   0.000005   0.001517   0.000047
     3  H   -0.000078   0.000084  -0.000003   0.000000   0.000000   0.000000
     4  H   -0.000023   0.000046  -0.000004   0.000000   0.000000   0.000000
     5  H    0.000084  -0.000078   0.000000   0.000000  -0.000003   0.000000
     6  H    0.000046  -0.000023   0.000000   0.000000  -0.000004   0.000000
     7  C    4.999170   0.676404   0.378755   0.382264  -0.031868  -0.037405
     8  C    0.676404   4.999170  -0.031868  -0.037405   0.378755   0.382264
     9  H    0.378755  -0.031868   0.503680  -0.033405  -0.006637   0.003931
    10  H    0.382264  -0.037405  -0.033405   0.508788   0.003931  -0.006802
    11  H   -0.031868   0.378755  -0.006637   0.003931   0.503680  -0.033405
    12  H   -0.037405   0.382264   0.003931  -0.006802  -0.033405   0.508788
 Mulliken charges:
               1
     1  C   -0.370263
     2  C   -0.370263
     3  H    0.183351
     4  H    0.184476
     5  H    0.183351
     6  H    0.184476
     7  C   -0.365124
     8  C   -0.365124
     9  H    0.184983
    10  H    0.182577
    11  H    0.184983
    12  H    0.182577
 Sum of Mulliken charges =   0.00000
 Mulliken charges with hydrogens summed into heavy atoms:
               1
     1  C   -0.002436
     2  C   -0.002436
     7  C    0.002436
     8  C    0.002436
 Electronic spatial extent (au):  <R**2>=           1597.5573
 Charge=              0.0000 electrons
 Dipole moment (field-independent basis, Debye):
    X=              0.0000    Y=             -0.0093    Z=             -0.0467  Tot=              0.0477
 Quadrupole moment (field-independent basis, Debye-Ang):
   XX=            -24.8800   YY=            -28.2956   ZZ=            -29.2263
   XY=              0.0000   XZ=              0.0000   YZ=             -0.9267
 Traceless Quadrupole moment (field-independent basis, Debye-Ang):
   XX=              2.5873   YY=             -0.8283   ZZ=             -1.7590
   XY=              0.0000   XZ=              0.0000   YZ=             -0.9267
 Octapole moment (field-independent basis, Debye-Ang**2):
  XXX=              0.0000  YYY=             -0.0358  ZZZ=           -193.1316  XYY=              0.0000
  XXY=             -0.0121  XXZ=            -62.2930  XZZ=              0.0000  YZZ=             -9.2756
  YYZ=            -79.4762  XYZ=              0.0000
 Hexadecapole moment (field-independent basis, Debye-Ang**3):
 XXXX=           -143.8815 YYYY=            -51.9972 ZZZZ=          -1973.5386 XXXY=              0.0000
 XXXZ=              0.0000 YYYX=              0.0000 YYYZ=              1.1278 ZZZX=              0.0000
 ZZZY=            -69.2940 XXYY=            -30.9017 XXZZ=           -343.1690 YYZZ=           -415.7295
 XXYZ=             -0.6109 YYXZ=              0.0000 ZZXY=              0.0000
 N-N= 9.254034787686D+01 E-N=-5.474370744037D+02  KE= 1.553440784141D+02
 ******************************Gaussian NBO Version 3.1******************************
             N A T U R A L   A T O M I C   O R B I T A L   A N D
          N A T U R A L   B O N D   O R B I T A L   A N A L Y S I S
 ******************************Gaussian NBO Version 3.1******************************

       /RESON  / : Allow strongly delocalized NBO set
       /FAO    / : Write the AO Fock matrix to LFN 44
       /SAO    / : Write the AO overlap matrix to LFN 43

 Analyzing the SCF density

 Job title: A_B_75                                                          

 Storage needed:     25928 in NPA,     34295 in NBO ( 536870096 available)


 NATURAL POPULATIONS:  Natural atomic orbital occupancies 
                                                          
   NAO  Atom  No  lang   Type(AO)    Occupancy      Energy
 ----------------------------------------------------------
     1    C    1  S      Cor( 1S)     1.99926     -10.06675
     2    C    1  S      Val( 2S)     1.08335      -0.25358
     3    C    1  S      Ryd( 4S)     0.00144       0.86943
     4    C    1  S      Ryd( 3S)     0.00021       0.63978
     5    C    1  S      Ryd( 5S)     0.00000       3.91223
     6    C    1  px     Val( 2p)     1.13222      -0.05750
     7    C    1  px     Ryd( 4p)     0.00377       0.41872
     8    C    1  px     Ryd( 3p)     0.00009       0.34388
     9    C    1  py     Val( 2p)     1.21813      -0.05511
    10    C    1  py     Ryd( 4p)     0.00335       0.82791
    11    C    1  py     Ryd( 3p)     0.00029       0.35549
    12    C    1  pz     Val( 2p)     0.99610      -0.12009
    13    C    1  pz     Ryd( 4p)     0.00270       0.44319
    14    C    1  pz     Ryd( 3p)     0.00025       0.39878
    15    C    1  dxy    Ryd( 3d)     0.00104       2.24430
    16    C    1  dxz    Ryd( 3d)     0.00063       1.90089
    17    C    1  dyz    Ryd( 3d)     0.00000       1.67645
    18    C    1  dx2y2  Ryd( 3d)     0.00059       2.29408
    19    C    1  dz2    Ryd( 3d)     0.00057       2.10360

    20    C    2  S      Cor( 1S)     1.99926     -10.06675
    21    C    2  S      Val( 2S)     1.08335      -0.25358
    22    C    2  S      Ryd( 4S)     0.00144       0.86943
    23    C    2  S      Ryd( 3S)     0.00021       0.63978
    24    C    2  S      Ryd( 5S)     0.00000       3.91223
    25    C    2  px     Val( 2p)     1.13222      -0.05750
    26    C    2  px     Ryd( 4p)     0.00377       0.41872
    27    C    2  px     Ryd( 3p)     0.00009       0.34388
    28    C    2  py     Val( 2p)     1.21813      -0.05511
    29    C    2  py     Ryd( 4p)     0.00335       0.82791
    30    C    2  py     Ryd( 3p)     0.00029       0.35549
    31    C    2  pz     Val( 2p)     0.99610      -0.12009
    32    C    2  pz     Ryd( 4p)     0.00270       0.44319
    33    C    2  pz     Ryd( 3p)     0.00025       0.39878
    34    C    2  dxy    Ryd( 3d)     0.00104       2.24430
    35    C    2  dxz    Ryd( 3d)     0.00063       1.90089
    36    C    2  dyz    Ryd( 3d)     0.00000       1.67645
    37    C    2  dx2y2  Ryd( 3d)     0.00059       2.29408
    38    C    2  dz2    Ryd( 3d)     0.00057       2.10360

    39    H    3  S      Val( 1S)     0.77740       0.07810
    40    H    3  S      Ryd( 2S)     0.00087       0.61468

    41    H    4  S      Val( 1S)     0.77653       0.07901
    42    H    4  S      Ryd( 2S)     0.00087       0.61504

    43    H    5  S      Val( 1S)     0.77740       0.07810
    44    H    5  S      Ryd( 2S)     0.00087       0.61468

    45    H    6  S      Val( 1S)     0.77653       0.07901
    46    H    6  S      Ryd( 2S)     0.00087       0.61504

    47    C    7  S      Cor( 1S)     1.99926     -10.06272
    48    C    7  S      Val( 2S)     1.08315      -0.24900
    49    C    7  S      Ryd( 4S)     0.00145       0.85747
    50    C    7  S      Ryd( 3S)     0.00022       0.65684
    51    C    7  S      Ryd( 5S)     0.00000       3.86490
    52    C    7  px     Val( 2p)     1.13218      -0.05347
    53    C    7  px     Ryd( 4p)     0.00375       0.41899
    54    C    7  px     Ryd( 3p)     0.00010       0.34876
    55    C    7  py     Val( 2p)     1.01128      -0.11166
    56    C    7  py     Ryd( 4p)     0.00275       0.46345
    57    C    7  py     Ryd( 3p)     0.00027       0.34995
    58    C    7  pz     Val( 2p)     1.20264      -0.05509
    59    C    7  pz     Ryd( 4p)     0.00330       0.79909
    60    C    7  pz     Ryd( 3p)     0.00038       0.40471
    61    C    7  dxy    Ryd( 3d)     0.00066       1.92765
    62    C    7  dxz    Ryd( 3d)     0.00102       2.22591
    63    C    7  dyz    Ryd( 3d)     0.00018       1.76856
    64    C    7  dx2y2  Ryd( 3d)     0.00040       2.25943
    65    C    7  dz2    Ryd( 3d)     0.00058       2.05995

    66    C    8  S      Cor( 1S)     1.99926     -10.06272
    67    C    8  S      Val( 2S)     1.08315      -0.24900
    68    C    8  S      Ryd( 4S)     0.00145       0.85747
    69    C    8  S      Ryd( 3S)     0.00022       0.65684
    70    C    8  S      Ryd( 5S)     0.00000       3.86490
    71    C    8  px     Val( 2p)     1.13218      -0.05347
    72    C    8  px     Ryd( 4p)     0.00375       0.41899
    73    C    8  px     Ryd( 3p)     0.00010       0.34876
    74    C    8  py     Val( 2p)     1.01128      -0.11166
    75    C    8  py     Ryd( 4p)     0.00275       0.46345
    76    C    8  py     Ryd( 3p)     0.00027       0.34995
    77    C    8  pz     Val( 2p)     1.20264      -0.05509
    78    C    8  pz     Ryd( 4p)     0.00330       0.79909
    79    C    8  pz     Ryd( 3p)     0.00038       0.40471
    80    C    8  dxy    Ryd( 3d)     0.00066       1.92765
    81    C    8  dxz    Ryd( 3d)     0.00102       2.22591
    82    C    8  dyz    Ryd( 3d)     0.00018       1.76856
    83    C    8  dx2y2  Ryd( 3d)     0.00040       2.25943
    84    C    8  dz2    Ryd( 3d)     0.00058       2.05995

    85    H    9  S      Val( 1S)     0.77593       0.08411
    86    H    9  S      Ryd( 2S)     0.00109       0.62249

    87    H   10  S      Val( 1S)     0.77885       0.08097
    88    H   10  S      Ryd( 2S)     0.00090       0.61644

    89    H   11  S      Val( 1S)     0.77593       0.08411
    90    H   11  S      Ryd( 2S)     0.00109       0.62249

    91    H   12  S      Val( 1S)     0.77885       0.08097
    92    H   12  S      Ryd( 2S)     0.00090       0.61644

 WARNING:  Population inversion found on atom  C    1
           Population inversion found on atom  C    2
           Population inversion found on atom  C    7
           Population inversion found on atom  C    8


 Summary of Natural Population Analysis:                  
                                                          
                                       Natural Population 
                Natural  -----------------------------------------------
    Atom  No    Charge         Core      Valence    Rydberg      Total
 -----------------------------------------------------------------------
      C    1   -0.44399      1.99926     4.42980    0.01493     6.44399
      C    2   -0.44399      1.99926     4.42980    0.01493     6.44399
      H    3    0.22173      0.00000     0.77740    0.00087     0.77827
      H    4    0.22260      0.00000     0.77653    0.00087     0.77740
      H    5    0.22173      0.00000     0.77740    0.00087     0.77827
      H    6    0.22260      0.00000     0.77653    0.00087     0.77740
      C    7   -0.44356      1.99926     4.42924    0.01506     6.44356
      C    8   -0.44356      1.99926     4.42924    0.01506     6.44356
      H    9    0.22298      0.00000     0.77593    0.00109     0.77702
      H   10    0.22025      0.00000     0.77885    0.00090     0.77975
      H   11    0.22298      0.00000     0.77593    0.00109     0.77702
      H   12    0.22025      0.00000     0.77885    0.00090     0.77975
 =======================================================================
   * Total *    0.00000      7.99705    23.93551    0.06745    32.00000

                                 Natural Population      
 --------------------------------------------------------
   Core                       7.99705 ( 99.9631% of   8)
   Valence                   23.93551 ( 99.7313% of  24)
   Natural Minimal Basis     31.93255 ( 99.7892% of  32)
   Natural Rydberg Basis      0.06745 (  0.2108% of  32)
 --------------------------------------------------------

    Atom  No          Natural Electron Configuration
 ----------------------------------------------------------------------------
      C    1      [core]2S( 1.08)2p( 3.35)4p( 0.01)
      C    2      [core]2S( 1.08)2p( 3.35)4p( 0.01)
      H    3            1S( 0.78)
      H    4            1S( 0.78)
      H    5            1S( 0.78)
      H    6            1S( 0.78)
      C    7      [core]2S( 1.08)2p( 3.35)4p( 0.01)
      C    8      [core]2S( 1.08)2p( 3.35)4p( 0.01)
      H    9            1S( 0.78)
      H   10            1S( 0.78)
      H   11            1S( 0.78)
      H   12            1S( 0.78)


 NATURAL BOND ORBITAL ANALYSIS:

                       Occupancies       Lewis Structure    Low   High
           Occ.    -------------------  -----------------   occ   occ
  Cycle   Thresh.   Lewis   Non-Lewis     CR  BD  3C  LP    (L)   (NL)   Dev
 =============================================================================
   1(1)    1.90    31.88760   0.11240      4  12   0   0     0      0    0.04
 -----------------------------------------------------------------------------

 Structure accepted: No low occupancy Lewis orbitals

 --------------------------------------------------------
   Core                      7.99706 ( 99.963% of   8)
   Valence Lewis            23.89054 ( 99.544% of  24)
  ==================       ============================
   Total Lewis              31.88760 ( 99.649% of  32)
  -----------------------------------------------------
   Valence non-Lewis         0.08292 (  0.259% of  32)
   Rydberg non-Lewis         0.02948 (  0.092% of  32)
  ==================       ============================
   Total non-Lewis           0.11240 (  0.351% of  32)
 --------------------------------------------------------


       (Occupancy)   Bond orbital/ Coefficients/ Hybrids
 ---------------------------------------------------------------------------------
     1. (1.99762) BD ( 1) C   1 - C   2  
                ( 50.00%)   0.7071* C   1 s( 39.10%)p 1.56( 60.86%)d 0.00(  0.04%)
                                            0.0000  0.6247 -0.0275 -0.0034 -0.0001
                                           -0.7785  0.0472  0.0021  0.0001  0.0000
                                            0.0001  0.0170  0.0006  0.0008  0.0000
                                           -0.0004  0.0000  0.0171 -0.0114
                ( 50.00%)   0.7071* C   2 s( 39.10%)p 1.56( 60.86%)d 0.00(  0.04%)
                                            0.0000  0.6247 -0.0275 -0.0034 -0.0001
                                            0.7785 -0.0472 -0.0021  0.0001  0.0000
                                            0.0001  0.0170  0.0006  0.0008  0.0000
                                            0.0004  0.0000  0.0171 -0.0114
     2. (1.99923) BD ( 2) C   1 - C   2  
                ( 50.00%)   0.7071* C   1 s(  0.01%)p99.99( 99.92%)d 5.28(  0.06%)
                                            0.0000 -0.0107  0.0001  0.0024  0.0000
                                            0.0131 -0.0009 -0.0004 -0.0001  0.0002
                                            0.0000  0.9981  0.0517 -0.0149  0.0000
                                           -0.0252  0.0001 -0.0002  0.0004
                ( 50.00%)   0.7071* C   2 s(  0.01%)p99.99( 99.92%)d 5.28(  0.06%)
                                            0.0000 -0.0107  0.0001  0.0024  0.0000
                                           -0.0131  0.0009  0.0004 -0.0001  0.0002
                                            0.0000  0.9981  0.0517 -0.0149  0.0000
                                            0.0252  0.0001 -0.0002  0.0004
     3. (1.98705) BD ( 1) C   1 - H   3  
                ( 61.17%)   0.7821* C   1 s( 30.45%)p 2.28( 69.49%)d 0.00(  0.06%)
                                           -0.0002  0.5517  0.0123  0.0016  0.0000
                                            0.4414 -0.0153 -0.0009  0.7069  0.0037
                                            0.0103  0.0002 -0.0001  0.0012  0.0180
                                            0.0000  0.0000 -0.0106 -0.0136
                ( 38.83%)   0.6231* H   3 s(100.00%)
                                            1.0000  0.0023
     4. (1.98702) BD ( 1) C   1 - H   4  
                ( 61.22%)   0.7824* C   1 s( 30.48%)p 2.28( 69.46%)d 0.00(  0.06%)
                                           -0.0002  0.5520  0.0123  0.0017  0.0000
                                            0.4414 -0.0150 -0.0010 -0.7067 -0.0037
                                           -0.0102  0.0001 -0.0003  0.0012 -0.0180
                                            0.0000  0.0000 -0.0106 -0.0135
                ( 38.78%)   0.6228* H   4 s(100.00%)
                                            1.0000  0.0023
     5. (1.98705) BD ( 1) C   2 - H   5  
                ( 61.17%)   0.7821* C   2 s( 30.45%)p 2.28( 69.49%)d 0.00(  0.06%)
                                            0.0002 -0.5517 -0.0123 -0.0016  0.0000
                                            0.4414 -0.0153 -0.0009 -0.7069 -0.0037
                                           -0.0103 -0.0002  0.0001 -0.0012  0.0180
                                            0.0000  0.0000  0.0106  0.0136
                ( 38.83%)   0.6231* H   5 s(100.00%)
                                           -1.0000 -0.0023
     6. (1.98702) BD ( 1) C   2 - H   6  
                ( 61.22%)   0.7824* C   2 s( 30.48%)p 2.28( 69.46%)d 0.00(  0.06%)
                                            0.0002 -0.5520 -0.0123 -0.0017  0.0000
                                            0.4414 -0.0150 -0.0010  0.7067  0.0037
                                            0.0102 -0.0001  0.0003 -0.0012 -0.0180
                                            0.0000  0.0000  0.0106  0.0135
                ( 38.78%)   0.6228* H   6 s(100.00%)
                                           -1.0000 -0.0023
     7. (1.99993) BD ( 1) C   7 - C   8  
                ( 50.00%)   0.7071* C   7 s(  0.48%)p99.99( 99.46%)d 0.13(  0.06%)
                                            0.0000  0.0689 -0.0027 -0.0012  0.0001
                                           -0.0863  0.0049  0.0005  0.9582  0.0499
                                           -0.0157  0.2570  0.0130 -0.0034 -0.0242
                                           -0.0065  0.0001  0.0020 -0.0010
                ( 50.00%)   0.7071* C   8 s(  0.48%)p99.99( 99.46%)d 0.13(  0.06%)
                                            0.0000  0.0689 -0.0027 -0.0012  0.0001
                                            0.0863 -0.0049 -0.0005  0.9582  0.0499
                                           -0.0157  0.2570  0.0130 -0.0034  0.0242
                                            0.0065  0.0001  0.0020 -0.0010
     8. (1.99762) BD ( 2) C   7 - C   8  
                ( 50.00%)   0.7071* C   7 s( 38.64%)p 1.59( 61.32%)d 0.00(  0.04%)
                                            0.0000  0.6210 -0.0276 -0.0032  0.0000
                                           -0.7738  0.0468  0.0024 -0.1068 -0.0056
                                            0.0018 -0.0282 -0.0012 -0.0003  0.0027
                                            0.0007 -0.0007  0.0181 -0.0091
                ( 50.00%)   0.7071* C   8 s( 38.64%)p 1.59( 61.32%)d 0.00(  0.04%)
                                            0.0000  0.6210 -0.0276 -0.0032  0.0000
                                            0.7738 -0.0468 -0.0024 -0.1068 -0.0056
                                            0.0018 -0.0282 -0.0012 -0.0003 -0.0027
                                           -0.0007 -0.0007  0.0181 -0.0091
     9. (1.98693) BD ( 1) C   7 - H   9  
                ( 61.25%)   0.7826* C   7 s( 30.52%)p 2.27( 69.42%)d 0.00(  0.06%)
                                           -0.0002  0.5523  0.0124  0.0017  0.0000
                                            0.4415 -0.0145 -0.0008  0.1831  0.0011
                                            0.0028 -0.6822 -0.0029 -0.0119  0.0047
                                           -0.0173 -0.0085  0.0053  0.0139
                ( 38.75%)   0.6225* H   9 s(100.00%)
                                            1.0000  0.0024
    10. (1.98706) BD ( 1) C   7 - H  10  
                ( 61.10%)   0.7817* C   7 s( 30.41%)p 2.29( 69.53%)d 0.00(  0.06%)
                                           -0.0002  0.5513  0.0123  0.0014  0.0000
                                            0.4413 -0.0154 -0.0012 -0.1830 -0.0009
                                           -0.0027  0.6832  0.0036  0.0096 -0.0047
                                            0.0174 -0.0085  0.0054  0.0140
                ( 38.90%)   0.6237* H  10 s(100.00%)
                                            1.0000  0.0023
    11. (1.98693) BD ( 1) C   8 - H  11  
                ( 61.25%)   0.7826* C   8 s( 30.52%)p 2.27( 69.42%)d 0.00(  0.06%)
                                            0.0002 -0.5523 -0.0124 -0.0017  0.0000
                                            0.4415 -0.0145 -0.0008 -0.1831 -0.0011
                                           -0.0028  0.6822  0.0029  0.0119  0.0047
                                           -0.0173  0.0085 -0.0053 -0.0139
                ( 38.75%)   0.6225* H  11 s(100.00%)
                                           -1.0000 -0.0024
    12. (1.98706) BD ( 1) C   8 - H  12  
                ( 61.10%)   0.7817* C   8 s( 30.41%)p 2.29( 69.53%)d 0.00(  0.06%)
                                            0.0002 -0.5513 -0.0123 -0.0014  0.0000
                                            0.4413 -0.0154 -0.0012  0.1830  0.0009
                                            0.0027 -0.6832 -0.0036 -0.0096 -0.0047
                                            0.0174  0.0085 -0.0054 -0.0140
                ( 38.90%)   0.6237* H  12 s(100.00%)
                                           -1.0000 -0.0023
    13. (1.99927) CR ( 1) C   1           s(100.00%)p 0.00(  0.00%)
                                            1.0000  0.0002  0.0000  0.0000  0.0000
                                            0.0002  0.0000  0.0000  0.0000  0.0000
                                            0.0000  0.0000  0.0000  0.0000  0.0000
                                            0.0000  0.0000  0.0000  0.0000
    14. (1.99927) CR ( 1) C   2           s(100.00%)p 0.00(  0.00%)
                                            1.0000  0.0002  0.0000  0.0000  0.0000
                                           -0.0002  0.0000  0.0000  0.0000  0.0000
                                            0.0000  0.0000  0.0000  0.0000  0.0000
                                            0.0000  0.0000  0.0000  0.0000
    15. (1.99927) CR ( 1) C   7           s(100.00%)p 0.00(  0.00%)
                                            1.0000  0.0002  0.0000  0.0000  0.0000
                                            0.0002  0.0000  0.0000  0.0000  0.0000
                                            0.0000  0.0000  0.0000  0.0000  0.0000
                                            0.0000  0.0000  0.0000  0.0000
    16. (1.99927) CR ( 1) C   8           s(100.00%)p 0.00(  0.00%)
                                            1.0000  0.0002  0.0000  0.0000  0.0000
                                           -0.0002  0.0000  0.0000  0.0000  0.0000
                                            0.0000  0.0000  0.0000  0.0000  0.0000
                                            0.0000  0.0000  0.0000  0.0000
    17. (0.00373) RY*( 1) C   1           s(  0.00%)p 1.00( 91.27%)d 0.10(  8.73%)
                                            0.0000  0.0000  0.0010 -0.0009  0.0002
                                           -0.0001 -0.0009  0.0004  0.0140 -0.9495
                                           -0.1048  0.0001  0.0005 -0.0014 -0.2955
                                            0.0001 -0.0001  0.0000  0.0000
    18. (0.00156) RY*( 2) C   1           s( 26.48%)p 2.77( 73.33%)d 0.01(  0.19%)
                                            0.0000  0.0113  0.4591 -0.2321 -0.0089
                                           -0.0565 -0.8248 -0.2213 -0.0002  0.0007
                                            0.0032  0.0013 -0.0054  0.0281  0.0010
                                            0.0006 -0.0002 -0.0192 -0.0385
    19. (0.00011) RY*( 3) C   1           s( 81.70%)p 0.18( 14.34%)d 0.05(  3.96%)
                                            0.0000  0.0063 -0.0708  0.8997 -0.0504
                                           -0.0174 -0.2643 -0.0888  0.0010  0.0073
                                           -0.0568  0.0094 -0.1796  0.1723 -0.0068
                                           -0.0084  0.0038 -0.1271  0.1527
    20. (0.00005) RY*( 4) C   1           s( 15.22%)p 5.30( 80.72%)d 0.27(  4.05%)
    21. (0.00001) RY*( 5) C   1           s(  0.93%)p99.99( 99.04%)d 0.03(  0.02%)
    22. (0.00000) RY*( 6) C   1           s( 98.62%)p 0.01(  1.36%)d 0.00(  0.01%)
    23. (0.00000) RY*( 7) C   1           s(  0.04%)p99.99( 99.95%)d 0.08(  0.00%)
    24. (0.00000) RY*( 8) C   1           s(  9.34%)p 9.69( 90.49%)d 0.02(  0.17%)
    25. (0.00000) RY*( 9) C   1           s( 59.90%)p 0.65( 39.19%)d 0.02(  0.91%)
    26. (0.00000) RY*(10) C   1           s(  0.00%)p 1.00(  8.83%)d10.33( 91.17%)
    27. (0.00000) RY*(11) C   1           s(  0.00%)p 1.00(  0.09%)d99.99( 99.90%)
    28. (0.00000) RY*(12) C   1           s(  0.00%)p 1.00(  0.01%)d99.99( 99.99%)
    29. (0.00000) RY*(13) C   1           s(  3.78%)p 0.03(  0.10%)d25.41( 96.11%)
    30. (0.00001) RY*(14) C   1           s(  3.92%)p 0.39(  1.54%)d24.14( 94.54%)
    31. (0.00373) RY*( 1) C   2           s(  0.00%)p 1.00( 91.27%)d 0.10(  8.73%)
                                            0.0000  0.0000  0.0010 -0.0009  0.0002
                                            0.0001  0.0009 -0.0004  0.0140 -0.9495
                                           -0.1048  0.0001  0.0005 -0.0014  0.2955
                                           -0.0001 -0.0001  0.0000  0.0000
    32. (0.00156) RY*( 2) C   2           s( 26.48%)p 2.77( 73.33%)d 0.01(  0.19%)
                                            0.0000  0.0113  0.4591 -0.2321 -0.0089
                                            0.0565  0.8248  0.2213 -0.0002  0.0007
                                            0.0032  0.0013 -0.0054  0.0281 -0.0010
                                           -0.0006 -0.0002 -0.0192 -0.0385
    33. (0.00011) RY*( 3) C   2           s( 81.70%)p 0.18( 14.34%)d 0.05(  3.96%)
                                            0.0000  0.0063 -0.0708  0.8997 -0.0504
                                            0.0174  0.2643  0.0888  0.0010  0.0073
                                           -0.0568  0.0094 -0.1796  0.1723  0.0068
                                            0.0084  0.0038 -0.1271  0.1527
    34. (0.00005) RY*( 4) C   2           s( 15.22%)p 5.30( 80.72%)d 0.27(  4.05%)
    35. (0.00001) RY*( 5) C   2           s(  0.93%)p99.99( 99.04%)d 0.03(  0.02%)
    36. (0.00000) RY*( 6) C   2           s( 98.62%)p 0.01(  1.36%)d 0.00(  0.01%)
    37. (0.00000) RY*( 7) C   2           s(  0.04%)p99.99( 99.95%)d 0.08(  0.00%)
    38. (0.00000) RY*( 8) C   2           s(  9.34%)p 9.69( 90.49%)d 0.02(  0.17%)
    39. (0.00000) RY*( 9) C   2           s( 59.90%)p 0.65( 39.19%)d 0.02(  0.91%)
    40. (0.00000) RY*(10) C   2           s(  0.00%)p 1.00(  8.83%)d10.33( 91.17%)
    41. (0.00000) RY*(11) C   2           s(  0.00%)p 1.00(  0.09%)d99.99( 99.90%)
    42. (0.00000) RY*(12) C   2           s(  0.00%)p 1.00(  0.01%)d99.99( 99.99%)
    43. (0.00000) RY*(13) C   2           s(  3.78%)p 0.03(  0.10%)d25.41( 96.11%)
    44. (0.00001) RY*(14) C   2           s(  3.92%)p 0.39(  1.54%)d24.14( 94.54%)
    45. (0.00088) RY*( 1) H   3           s(100.00%)
                                           -0.0023  1.0000
    46. (0.00088) RY*( 1) H   4           s(100.00%)
                                           -0.0023  1.0000
    47. (0.00088) RY*( 1) H   5           s(100.00%)
                                           -0.0023  1.0000
    48. (0.00088) RY*( 1) H   6           s(100.00%)
                                           -0.0023  1.0000
    49. (0.00374) RY*( 1) C   7           s(  0.00%)p 1.00( 91.30%)d 0.10(  8.69%)
                                            0.0000 -0.0004  0.0054 -0.0024  0.0022
                                            0.0000  0.0054 -0.0095  0.0038 -0.2449
                                           -0.0277 -0.0133  0.9163  0.1115 -0.0761
                                            0.2849 -0.0006  0.0007 -0.0002
    50. (0.00158) RY*( 2) C   7           s( 26.49%)p 2.77( 73.33%)d 0.01(  0.18%)
                                            0.0000  0.0115  0.4508 -0.2481 -0.0043
                                           -0.0560 -0.8228 -0.2303 -0.0003 -0.0025
                                           -0.0005 -0.0006 -0.0012 -0.0091 -0.0004
                                            0.0024 -0.0205  0.0211  0.0309
    51. (0.00011) RY*( 3) C   7           s( 81.51%)p 0.18( 14.59%)d 0.05(  3.91%)
                                            0.0000  0.0050  0.1516  0.8899  0.0106
                                           -0.0189 -0.1402 -0.1567 -0.0061  0.0715
                                            0.0047  0.0042  0.0721 -0.3016  0.0152
                                           -0.0451  0.0108 -0.1834  0.0551
    52. (0.00007) RY*( 4) C   7           s( 18.78%)p 4.04( 75.90%)d 0.28(  5.33%)
    53. (0.00000) RY*( 5) C   7           s(  3.80%)p25.33( 96.13%)d 0.02(  0.07%)
    54. (0.00000) RY*( 6) C   7           s(  0.55%)p99.99( 99.43%)d 0.03(  0.02%)
    55. (0.00000) RY*( 7) C   7           s(  0.00%)p 1.00( 99.98%)d 0.00(  0.01%)
    56. (0.00000) RY*( 8) C   7           s( 98.35%)p 0.02(  1.65%)d 0.00(  0.00%)
    57. (0.00000) RY*( 9) C   7           s( 63.68%)p 0.55( 35.05%)d 0.02(  1.27%)
    58. (0.00000) RY*(10) C   7           s(  0.02%)p44.11(  0.88%)d99.99( 99.10%)
    59. (0.00000) RY*(11) C   7           s(  0.17%)p54.89(  9.36%)d99.99( 90.47%)
    60. (0.00000) RY*(12) C   7           s(  0.35%)p 1.93(  0.68%)d99.99( 98.97%)
    61. (0.00000) RY*(13) C   7           s(  6.02%)p 0.29(  1.73%)d15.32( 92.25%)
    62. (0.00000) RY*(14) C   7           s(  0.24%)p 1.12(  0.27%)d99.99( 99.49%)
    63. (0.00374) RY*( 1) C   8           s(  0.00%)p 1.00( 91.30%)d 0.10(  8.69%)
                                            0.0000 -0.0004  0.0054 -0.0024  0.0022
                                            0.0000 -0.0054  0.0095  0.0038 -0.2449
                                           -0.0277 -0.0133  0.9163  0.1115  0.0761
                                           -0.2849 -0.0006  0.0007 -0.0002
    64. (0.00158) RY*( 2) C   8           s( 26.49%)p 2.77( 73.33%)d 0.01(  0.18%)
                                            0.0000  0.0115  0.4508 -0.2481 -0.0043
                                            0.0560  0.8228  0.2303 -0.0003 -0.0025
                                           -0.0005 -0.0006 -0.0012 -0.0091  0.0004
                                           -0.0024 -0.0205  0.0211  0.0309
    65. (0.00011) RY*( 3) C   8           s( 81.51%)p 0.18( 14.59%)d 0.05(  3.91%)
                                            0.0000  0.0050  0.1516  0.8899  0.0106
                                            0.0189  0.1402  0.1567 -0.0061  0.0715
                                            0.0047  0.0042  0.0721 -0.3016 -0.0152
                                            0.0451  0.0108 -0.1834  0.0551
    66. (0.00007) RY*( 4) C   8           s( 18.78%)p 4.04( 75.90%)d 0.28(  5.33%)
    67. (0.00000) RY*( 5) C   8           s(  3.80%)p25.33( 96.13%)d 0.02(  0.07%)
    68. (0.00000) RY*( 6) C   8           s(  0.55%)p99.99( 99.43%)d 0.03(  0.02%)
    69. (0.00000) RY*( 7) C   8           s(  0.00%)p 1.00( 99.98%)d 0.00(  0.01%)
    70. (0.00000) RY*( 8) C   8           s( 98.35%)p 0.02(  1.65%)d 0.00(  0.00%)
    71. (0.00000) RY*( 9) C   8           s( 63.68%)p 0.55( 35.05%)d 0.02(  1.27%)
    72. (0.00000) RY*(10) C   8           s(  0.02%)p44.11(  0.88%)d99.99( 99.10%)
    73. (0.00000) RY*(11) C   8           s(  0.17%)p54.89(  9.36%)d99.99( 90.47%)
    74. (0.00000) RY*(12) C   8           s(  0.35%)p 1.93(  0.68%)d99.99( 98.97%)
    75. (0.00000) RY*(13) C   8           s(  6.02%)p 0.29(  1.73%)d15.32( 92.25%)
    76. (0.00000) RY*(14) C   8           s(  0.24%)p 1.12(  0.27%)d99.99( 99.49%)
    77. (0.00109) RY*( 1) H   9           s(100.00%)
                                           -0.0024  1.0000
    78. (0.00090) RY*( 1) H  10           s(100.00%)
                                           -0.0023  1.0000
    79. (0.00109) RY*( 1) H  11           s(100.00%)
                                           -0.0024  1.0000
    80. (0.00090) RY*( 1) H  12           s(100.00%)
                                           -0.0023  1.0000
    81. (0.00291) BD*( 1) C   1 - C   2  
                ( 50.00%)   0.7071* C   1 s( 39.10%)p 1.56( 60.86%)d 0.00(  0.04%)
                                            0.0000  0.6247 -0.0275 -0.0034 -0.0001
                                           -0.7785  0.0472  0.0021  0.0001  0.0000
                                            0.0001  0.0170  0.0006  0.0008  0.0000
                                           -0.0004  0.0000  0.0171 -0.0114
                ( 50.00%)  -0.7071* C   2 s( 39.10%)p 1.56( 60.86%)d 0.00(  0.04%)
                                            0.0000  0.6247 -0.0275 -0.0034 -0.0001
                                            0.7785 -0.0472 -0.0021  0.0001  0.0000
                                            0.0001  0.0170  0.0006  0.0008  0.0000
                                            0.0004  0.0000  0.0171 -0.0114
    82. (0.00004) BD*( 2) C   1 - C   2  
                ( 50.00%)   0.7071* C   1 s(  0.01%)p99.99( 99.92%)d 5.28(  0.06%)
                ( 50.00%)  -0.7071* C   2 s(  0.01%)p99.99( 99.92%)d 5.28(  0.06%)
    83. (0.00961) BD*( 1) C   1 - H   3  
                ( 38.83%)   0.6231* C   1 s( 30.45%)p 2.28( 69.49%)d 0.00(  0.06%)
                                            0.0002 -0.5517 -0.0123 -0.0016  0.0000
                                           -0.4414  0.0153  0.0009 -0.7069 -0.0037
                                           -0.0103 -0.0002  0.0001 -0.0012 -0.0180
                                            0.0000  0.0000  0.0106  0.0136
                ( 61.17%)  -0.7821* H   3 s(100.00%)
                                           -1.0000 -0.0023
    84. (0.00959) BD*( 1) C   1 - H   4  
                ( 38.78%)   0.6228* C   1 s( 30.48%)p 2.28( 69.46%)d 0.00(  0.06%)
                                            0.0002 -0.5520 -0.0123 -0.0017  0.0000
                                           -0.4414  0.0150  0.0010  0.7067  0.0037
                                            0.0102 -0.0001  0.0003 -0.0012  0.0180
                                            0.0000  0.0000  0.0106  0.0135
                ( 61.22%)  -0.7824* H   4 s(100.00%)
                                           -1.0000 -0.0023
    85. (0.00961) BD*( 1) C   2 - H   5  
                ( 38.83%)   0.6231* C   2 s( 30.45%)p 2.28( 69.49%)d 0.00(  0.06%)
                                           -0.0002  0.5517  0.0123  0.0016  0.0000
                                           -0.4414  0.0153  0.0009  0.7069  0.0037
                                            0.0103  0.0002 -0.0001  0.0012 -0.0180
                                            0.0000  0.0000 -0.0106 -0.0136
                ( 61.17%)  -0.7821* H   5 s(100.00%)
                                            1.0000  0.0023
    86. (0.00959) BD*( 1) C   2 - H   6  
                ( 38.78%)   0.6228* C   2 s( 30.48%)p 2.28( 69.46%)d 0.00(  0.06%)
                                           -0.0002  0.5520  0.0123  0.0017  0.0000
                                           -0.4414  0.0150  0.0010 -0.7067 -0.0037
                                           -0.0102  0.0001 -0.0003  0.0012  0.0180
                                            0.0000  0.0000 -0.0106 -0.0135
                ( 61.22%)  -0.7824* H   6 s(100.00%)
                                            1.0000  0.0023
    87. (0.00004) BD*( 1) C   7 - C   8  
                ( 50.00%)   0.7071* C   7 s(  0.48%)p99.99( 99.46%)d 0.13(  0.06%)
                ( 50.00%)  -0.7071* C   8 s(  0.48%)p99.99( 99.46%)d 0.13(  0.06%)
    88. (0.00287) BD*( 2) C   7 - C   8  
                ( 50.00%)   0.7071* C   7 s( 38.64%)p 1.59( 61.32%)d 0.00(  0.04%)
                                            0.0000  0.6210 -0.0276 -0.0032  0.0000
                                           -0.7738  0.0468  0.0024 -0.1068 -0.0056
                                            0.0018 -0.0282 -0.0012 -0.0003  0.0027
                                            0.0007 -0.0007  0.0181 -0.0091
                ( 50.00%)  -0.7071* C   8 s( 38.64%)p 1.59( 61.32%)d 0.00(  0.04%)
                                            0.0000  0.6210 -0.0276 -0.0032  0.0000
                                            0.7738 -0.0468 -0.0024 -0.1068 -0.0056
                                            0.0018 -0.0282 -0.0012 -0.0003 -0.0027
                                           -0.0007 -0.0007  0.0181 -0.0091
    89. (0.00970) BD*( 1) C   7 - H   9  
                ( 38.75%)   0.6225* C   7 s( 30.52%)p 2.27( 69.42%)d 0.00(  0.06%)
                                            0.0002 -0.5523 -0.0124 -0.0017  0.0000
                                           -0.4415  0.0145  0.0008 -0.1831 -0.0011
                                           -0.0028  0.6822  0.0029  0.0119 -0.0047
                                            0.0173  0.0085 -0.0053 -0.0139
                ( 61.25%)  -0.7826* H   9 s(100.00%)
                                           -1.0000 -0.0024
    90. (0.00963) BD*( 1) C   7 - H  10  
                ( 38.90%)   0.6237* C   7 s( 30.41%)p 2.29( 69.53%)d 0.00(  0.06%)
                                            0.0002 -0.5513 -0.0123 -0.0014  0.0000
                                           -0.4413  0.0154  0.0012  0.1830  0.0009
                                            0.0027 -0.6832 -0.0036 -0.0096  0.0047
                                           -0.0174  0.0085 -0.0054 -0.0140
                ( 61.10%)  -0.7817* H  10 s(100.00%)
                                           -1.0000 -0.0023
    91. (0.00970) BD*( 1) C   8 - H  11  
                ( 38.75%)   0.6225* C   8 s( 30.52%)p 2.27( 69.42%)d 0.00(  0.06%)
                                           -0.0002  0.5523  0.0124  0.0017  0.0000
                                           -0.4415  0.0145  0.0008  0.1831  0.0011
                                            0.0028 -0.6822 -0.0029 -0.0119 -0.0047
                                            0.0173 -0.0085  0.0053  0.0139
                ( 61.25%)  -0.7826* H  11 s(100.00%)
                                            1.0000  0.0024
    92. (0.00963) BD*( 1) C   8 - H  12  
                ( 38.90%)   0.6237* C   8 s( 30.41%)p 2.29( 69.53%)d 0.00(  0.06%)
                                           -0.0002  0.5513  0.0123  0.0014  0.0000
                                           -0.4413  0.0154  0.0012 -0.1830 -0.0009
                                           -0.0027  0.6832  0.0036  0.0096  0.0047
                                           -0.0174 -0.0085  0.0054  0.0140
                ( 61.10%)  -0.7817* H  12 s(100.00%)
                                            1.0000  0.0023


 NHO Directionality and "Bond Bending" (deviations from line of nuclear centers)

         [Thresholds for printing:  angular deviation  >  1.0 degree]
                                    hybrid p-character > 25.0%
                                    orbital occupancy  >  0.10e

                                Line of Centers        Hybrid 1              Hybrid 2
                                ---------------  -------------------   ------------------
                NBO               Theta   Phi    Theta   Phi    Dev    Theta   Phi    Dev
 ========================================================================================
     1. BD (   1) C   1 - C   2    90.0  180.0    88.6  180.0   1.4     88.6    0.0   1.4
     2. BD (   2) C   1 - C   2    90.0  180.0   179.3  180.2  89.3    179.3  359.8  89.3
     7. BD (   1) C   7 - C   8    90.0  180.0    75.0   94.7  85.5     75.0   85.3  85.5
     8. BD (   2) C   7 - C   8    90.0  180.0    92.3  188.7   9.0     92.3  351.3   9.0


 Second Order Perturbation Theory Analysis of Fock Matrix in NBO Basis

     Threshold for printing:   0.50 kcal/mol
    (Intermolecular threshold: 0.05 kcal/mol)
                                                                              E(2)  E(j)-E(i) F(i,j)
         Donor NBO (i)                     Acceptor NBO (j)                 kcal/mol   a.u.    a.u. 
 ===================================================================================================

 within unit  1
   1. BD (   1) C   1 - C   2        / 83. BD*(   1) C   1 - H   3            0.68    1.20    0.026
   1. BD (   1) C   1 - C   2        / 84. BD*(   1) C   1 - H   4            0.68    1.21    0.026
   1. BD (   1) C   1 - C   2        / 85. BD*(   1) C   2 - H   5            0.68    1.20    0.026
   1. BD (   1) C   1 - C   2        / 86. BD*(   1) C   2 - H   6            0.68    1.21    0.026
   3. BD (   1) C   1 - H   3        / 31. RY*(   1) C   2                    1.43    1.56    0.042
   3. BD (   1) C   1 - H   3        / 32. RY*(   2) C   2                    0.64    1.09    0.024
   3. BD (   1) C   1 - H   3        / 81. BD*(   1) C   1 - C   2            0.72    1.16    0.026
   3. BD (   1) C   1 - H   3        / 86. BD*(   1) C   2 - H   6            4.32    0.99    0.058
   4. BD (   1) C   1 - H   4        / 31. RY*(   1) C   2                    1.42    1.56    0.042
   4. BD (   1) C   1 - H   4        / 32. RY*(   2) C   2                    0.65    1.09    0.024
   4. BD (   1) C   1 - H   4        / 81. BD*(   1) C   1 - C   2            0.73    1.16    0.026
   4. BD (   1) C   1 - H   4        / 85. BD*(   1) C   2 - H   5            4.33    0.99    0.058
   5. BD (   1) C   2 - H   5        / 17. RY*(   1) C   1                    1.43    1.56    0.042
   5. BD (   1) C   2 - H   5        / 18. RY*(   2) C   1                    0.64    1.09    0.024
   5. BD (   1) C   2 - H   5        / 81. BD*(   1) C   1 - C   2            0.72    1.16    0.026
   5. BD (   1) C   2 - H   5        / 84. BD*(   1) C   1 - H   4            4.32    0.99    0.058
   6. BD (   1) C   2 - H   6        / 17. RY*(   1) C   1                    1.42    1.56    0.042
   6. BD (   1) C   2 - H   6        / 18. RY*(   2) C   1                    0.65    1.09    0.024
   6. BD (   1) C   2 - H   6        / 81. BD*(   1) C   1 - C   2            0.73    1.16    0.026
   6. BD (   1) C   2 - H   6        / 83. BD*(   1) C   1 - H   3            4.33    0.99    0.058
  13. CR (   1) C   1                / 32. RY*(   2) C   2                    2.79   10.63    0.154
  13. CR (   1) C   1                / 81. BD*(   1) C   1 - C   2            0.71   10.70    0.078
  13. CR (   1) C   1                / 85. BD*(   1) C   2 - H   5            0.67   10.53    0.075
  13. CR (   1) C   1                / 86. BD*(   1) C   2 - H   6            0.67   10.53    0.075
  14. CR (   1) C   2                / 18. RY*(   2) C   1                    2.79   10.63    0.154
  14. CR (   1) C   2                / 81. BD*(   1) C   1 - C   2            0.71   10.70    0.078
  14. CR (   1) C   2                / 83. BD*(   1) C   1 - H   3            0.67   10.53    0.075
  14. CR (   1) C   2                / 84. BD*(   1) C   1 - H   4            0.67   10.53    0.075

 from unit  1 to unit  2
       None above threshold

 from unit  2 to unit  1
       None above threshold

 within unit  2
   8. BD (   2) C   7 - C   8        / 89. BD*(   1) C   7 - H   9            0.69    1.20    0.026
   8. BD (   2) C   7 - C   8        / 90. BD*(   1) C   7 - H  10            0.68    1.20    0.025
   8. BD (   2) C   7 - C   8        / 91. BD*(   1) C   8 - H  11            0.69    1.20    0.026
   8. BD (   2) C   7 - C   8        / 92. BD*(   1) C   8 - H  12            0.68    1.20    0.025
   9. BD (   1) C   7 - H   9        / 63. RY*(   1) C   8                    1.44    1.56    0.042
   9. BD (   1) C   7 - H   9        / 64. RY*(   2) C   8                    0.66    1.08    0.024
   9. BD (   1) C   7 - H   9        / 88. BD*(   2) C   7 - C   8            0.73    1.15    0.026
   9. BD (   1) C   7 - H   9        / 92. BD*(   1) C   8 - H  12            4.32    0.99    0.058
  10. BD (   1) C   7 - H  10        / 63. RY*(   1) C   8                    1.42    1.56    0.042
  10. BD (   1) C   7 - H  10        / 64. RY*(   2) C   8                    0.65    1.08    0.024
  10. BD (   1) C   7 - H  10        / 88. BD*(   2) C   7 - C   8            0.71    1.15    0.026
  10. BD (   1) C   7 - H  10        / 91. BD*(   1) C   8 - H  11            4.31    0.99    0.058
  11. BD (   1) C   8 - H  11        / 49. RY*(   1) C   7                    1.44    1.56    0.042
  11. BD (   1) C   8 - H  11        / 50. RY*(   2) C   7                    0.66    1.08    0.024
  11. BD (   1) C   8 - H  11        / 88. BD*(   2) C   7 - C   8            0.73    1.15    0.026
  11. BD (   1) C   8 - H  11        / 90. BD*(   1) C   7 - H  10            4.32    0.99    0.058
  12. BD (   1) C   8 - H  12        / 49. RY*(   1) C   7                    1.42    1.56    0.042
  12. BD (   1) C   8 - H  12        / 50. RY*(   2) C   7                    0.65    1.08    0.024
  12. BD (   1) C   8 - H  12        / 88. BD*(   2) C   7 - C   8            0.71    1.15    0.026
  12. BD (   1) C   8 - H  12        / 89. BD*(   1) C   7 - H   9            4.31    0.99    0.058
  15. CR (   1) C   7                / 64. RY*(   2) C   8                    2.75   10.63    0.153
  15. CR (   1) C   7                / 88. BD*(   2) C   7 - C   8            0.70   10.69    0.077
  15. CR (   1) C   7                / 91. BD*(   1) C   8 - H  11            0.67   10.53    0.075
  15. CR (   1) C   7                / 92. BD*(   1) C   8 - H  12            0.67   10.53    0.075
  16. CR (   1) C   8                / 50. RY*(   2) C   7                    2.75   10.63    0.153
  16. CR (   1) C   8                / 88. BD*(   2) C   7 - C   8            0.70   10.69    0.077
  16. CR (   1) C   8                / 89. BD*(   1) C   7 - H   9            0.67   10.53    0.075
  16. CR (   1) C   8                / 90. BD*(   1) C   7 - H  10            0.67   10.53    0.075


 Natural Bond Orbitals (Summary):

                                                            Principal Delocalizations
           NBO                        Occupancy    Energy   (geminal,vicinal,remote)
 ====================================================================================
 Molecular unit  1  (C2H4)
     1. BD (   1) C   1 - C   2          1.99762    -0.74138  84(g),86(g),83(g),85(g)
     2. BD (   2) C   1 - C   2          1.99923    -0.27737   
     3. BD (   1) C   1 - H   3          1.98705    -0.52504  86(v),31(v),81(g),32(v)
     4. BD (   1) C   1 - H   4          1.98702    -0.52476  85(v),31(v),81(g),32(v)
     5. BD (   1) C   2 - H   5          1.98705    -0.52504  84(v),17(v),81(g),18(v)
     6. BD (   1) C   2 - H   6          1.98702    -0.52476  83(v),17(v),81(g),18(v)
    13. CR (   1) C   1                  1.99927   -10.06711  32(v),81(g),85(v),86(v)
    14. CR (   1) C   2                  1.99927   -10.06711  18(v),81(g),83(v),84(v)
    17. RY*(   1) C   1                  0.00373     1.03440   
    18. RY*(   2) C   1                  0.00156     0.56267   
    19. RY*(   3) C   1                  0.00011     0.58057   
    20. RY*(   4) C   1                  0.00005     0.35581   
    21. RY*(   5) C   1                  0.00001     0.25394   
    22. RY*(   6) C   1                  0.00000     3.91065   
    23. RY*(   7) C   1                  0.00000     0.32217   
    24. RY*(   8) C   1                  0.00000     0.71220   
    25. RY*(   9) C   1                  0.00000     0.74829   
    26. RY*(  10) C   1                  0.00000     2.06900   
    27. RY*(  11) C   1                  0.00000     1.89780   
    28. RY*(  12) C   1                  0.00000     1.67624   
    29. RY*(  13) C   1                  0.00000     2.22865   
    30. RY*(  14) C   1                  0.00001     2.05202   
    31. RY*(   1) C   2                  0.00373     1.03440   
    32. RY*(   2) C   2                  0.00156     0.56267   
    33. RY*(   3) C   2                  0.00011     0.58057   
    34. RY*(   4) C   2                  0.00005     0.35581   
    35. RY*(   5) C   2                  0.00001     0.25394   
    36. RY*(   6) C   2                  0.00000     3.91065   
    37. RY*(   7) C   2                  0.00000     0.32217   
    38. RY*(   8) C   2                  0.00000     0.71220   
    39. RY*(   9) C   2                  0.00000     0.74829   
    40. RY*(  10) C   2                  0.00000     2.06900   
    41. RY*(  11) C   2                  0.00000     1.89780   
    42. RY*(  12) C   2                  0.00000     1.67624   
    43. RY*(  13) C   2                  0.00000     2.22865   
    44. RY*(  14) C   2                  0.00001     2.05202   
    45. RY*(   1) H   3                  0.00088     0.61342   
    46. RY*(   1) H   4                  0.00088     0.61378   
    47. RY*(   1) H   5                  0.00088     0.61342   
    48. RY*(   1) H   6                  0.00088     0.61378   
    81. BD*(   1) C   1 - C   2          0.00291     0.63286   
    82. BD*(   2) C   1 - C   2          0.00004     0.02774   
    83. BD*(   1) C   1 - H   3          0.00961     0.46314   
    84. BD*(   1) C   1 - H   4          0.00959     0.46377   
    85. BD*(   1) C   2 - H   5          0.00961     0.46314   
    86. BD*(   1) C   2 - H   6          0.00959     0.46377   
       -------------------------------
              Total Lewis   15.94354  ( 99.6512%)
        Valence non-Lewis    0.04135  (  0.2584%)
        Rydberg non-Lewis    0.01445  (  0.0903%)
       -------------------------------
            Total unit  1   15.99934  (100.0000%)
           Charge unit  1    0.00066

 Molecular unit  2  (C2H4)
     7. BD (   1) C   7 - C   8          1.99993    -0.27892   
     8. BD (   2) C   7 - C   8          1.99762    -0.73151  89(g),91(g),90(g),92(g)
     9. BD (   1) C   7 - H   9          1.98693    -0.52042  92(v),63(v),88(g),64(v)
    10. BD (   1) C   7 - H  10          1.98706    -0.52119  91(v),63(v),88(g),64(v)
    11. BD (   1) C   8 - H  11          1.98693    -0.52042  90(v),49(v),88(g),50(v)
    12. BD (   1) C   8 - H  12          1.98706    -0.52119  89(v),49(v),88(g),50(v)
    15. CR (   1) C   7                  1.99927   -10.06308  64(v),88(g),92(v),91(v)
    16. CR (   1) C   8                  1.99927   -10.06308  50(v),88(g),90(v),89(v)
    49. RY*(   1) C   7                  0.00374     1.03547   
    50. RY*(   2) C   7                  0.00158     0.56335   
    51. RY*(   3) C   7                  0.00011     0.76225   
    52. RY*(   4) C   7                  0.00007     0.45748   
    53. RY*(   5) C   7                  0.00000     0.26738   
    54. RY*(   6) C   7                  0.00000     0.47562   
    55. RY*(   7) C   7                  0.00000     0.34415   
    56. RY*(   8) C   7                  0.00000     3.88111   
    57. RY*(   9) C   7                  0.00000     0.70013   
    58. RY*(  10) C   7                  0.00000     1.90966   
    59. RY*(  11) C   7                  0.00000     2.01964   
    60. RY*(  12) C   7                  0.00000     1.75458   
    61. RY*(  13) C   7                  0.00000     2.16694   
    62. RY*(  14) C   7                  0.00000     2.04348   
    63. RY*(   1) C   8                  0.00374     1.03547   
    64. RY*(   2) C   8                  0.00158     0.56335   
    65. RY*(   3) C   8                  0.00011     0.76225   
    66. RY*(   4) C   8                  0.00007     0.45748   
    67. RY*(   5) C   8                  0.00000     0.26738   
    68. RY*(   6) C   8                  0.00000     0.47562   
    69. RY*(   7) C   8                  0.00000     0.34415   
    70. RY*(   8) C   8                  0.00000     3.88111   
    71. RY*(   9) C   8                  0.00000     0.70013   
    72. RY*(  10) C   8                  0.00000     1.90966   
    73. RY*(  11) C   8                  0.00000     2.01964   
    74. RY*(  12) C   8                  0.00000     1.75458   
    75. RY*(  13) C   8                  0.00000     2.16694   
    76. RY*(  14) C   8                  0.00000     2.04348   
    77. RY*(   1) H   9                  0.00109     0.62114   
    78. RY*(   1) H  10                  0.00090     0.61517   
    79. RY*(   1) H  11                  0.00109     0.62114   
    80. RY*(   1) H  12                  0.00090     0.61517   
    87. BD*(   1) C   7 - C   8          0.00004     0.03906   
    88. BD*(   2) C   7 - C   8          0.00287     0.62950   
    89. BD*(   1) C   7 - H   9          0.00970     0.46920   
    90. BD*(   1) C   7 - H  10          0.00963     0.46663   
    91. BD*(   1) C   8 - H  11          0.00970     0.46920   
    92. BD*(   1) C   8 - H  12          0.00963     0.46663   
       -------------------------------
              Total Lewis   15.94407  ( 99.6463%)
        Valence non-Lewis    0.04157  (  0.2598%)
        Rydberg non-Lewis    0.01502  (  0.0939%)
       -------------------------------
            Total unit  2   16.00066  (100.0000%)
           Charge unit  2   -0.00066
 1\1\GINC-RSWPRH01\SP\RB3LYP\6-31+G(d)\C4H8\ROOT\18-Sep-2016\0\\# B3LYP
 /6-31+G* int=ultrafine nosymm pop=nboread\\A_B_75\\0,1\C,0,0.672749,0.
 ,0.\C,0,-0.672749,0.,0.\H,0,1.242623,0.934806,0.\H,0,1.242623,-0.93480
 6,0.\H,0,-1.242623,0.934806,0.\H,0,-1.242623,-0.934806,0.\C,0,0.672749
 ,0.,5.\C,0,-0.672749,0.,5.\H,0,1.242623,0.241946,4.097047\H,0,1.242623
 ,-0.241946,5.902953\H,0,-1.242623,0.241946,4.097047\H,0,-1.242623,-0.2
 41946,5.902953\\Version=ES64L-G09RevD.01\HF=-157.1860612\RMSD=4.029e-0
 9\Dipole=0.,-0.0036735,-0.0183899\Quadrupole=1.9235835,-0.6158207,-1.3
 077628,0.,0.,-0.6889932\PG=CS [X(C4H8)]\\@


 Age does not diminish the extreme disappointment of
 having a scoop of ice cream fall from the cone.
 -- Jim Fiebig
 Job cpu time:       0 days  0 hours  0 minutes 26.0 seconds.
 File lengths (MBytes):  RWF=      5 Int=      0 D2E=      0 Chk=      1 Scr=      1
 Normal termination of Gaussian 09 at Sun Sep 18 08:51:24 2016.
