 Entering Gaussian System, Link 0=g09
 Input=A_B_30.gjf
 Output=A_B_30.log
 Initial command:
 /opt/share/GAUSSIAN/v09-D.01.app/g09/l1.exe "/tmp/Gau-12037.inp" -scrdir="/tmp/"
 Entering Link 1 = /opt/share/GAUSSIAN/v09-D.01.app/g09/l1.exe PID=     12038.
  
 Copyright (c) 1988,1990,1992,1993,1995,1998,2003,2009,2013,
            Gaussian, Inc.  All Rights Reserved.
  
 This is part of the Gaussian(R) 09 program.  It is based on
 the Gaussian(R) 03 system (copyright 2003, Gaussian, Inc.),
 the Gaussian(R) 98 system (copyright 1998, Gaussian, Inc.),
 the Gaussian(R) 94 system (copyright 1995, Gaussian, Inc.),
 the Gaussian 92(TM) system (copyright 1992, Gaussian, Inc.),
 the Gaussian 90(TM) system (copyright 1990, Gaussian, Inc.),
 the Gaussian 88(TM) system (copyright 1988, Gaussian, Inc.),
 the Gaussian 86(TM) system (copyright 1986, Carnegie Mellon
 University), and the Gaussian 82(TM) system (copyright 1983,
 Carnegie Mellon University). Gaussian is a federally registered
 trademark of Gaussian, Inc.
  
 This software contains proprietary and confidential information,
 including trade secrets, belonging to Gaussian, Inc.
  
 This software is provided under written license and may be
 used, copied, transmitted, or stored only in accord with that
 written license.
  
 The following legend is applicable only to US Government
 contracts under FAR:
  
                    RESTRICTED RIGHTS LEGEND
  
 Use, reproduction and disclosure by the US Government is
 subject to restrictions as set forth in subparagraphs (a)
 and (c) of the Commercial Computer Software - Restricted
 Rights clause in FAR 52.227-19.
  
 Gaussian, Inc.
 340 Quinnipiac St., Bldg. 40, Wallingford CT 06492
  
  
 ---------------------------------------------------------------
 Warning -- This program may not be used in any manner that
 competes with the business of Gaussian, Inc. or will provide
 assistance to any competitor of Gaussian, Inc.  The licensee
 of this program is prohibited from giving any competitor of
 Gaussian, Inc. access to this program.  By using this program,
 the user acknowledges that Gaussian, Inc. is engaged in the
 business of creating and licensing software in the field of
 computational chemistry and represents and warrants to the
 licensee that it is not a competitor of Gaussian, Inc. and that
 it will not use this program in any manner prohibited above.
 ---------------------------------------------------------------
  

 Cite this work as:
 Gaussian 09, Revision D.01,
 M. J. Frisch, G. W. Trucks, H. B. Schlegel, G. E. Scuseria, 
 M. A. Robb, J. R. Cheeseman, G. Scalmani, V. Barone, B. Mennucci, 
 G. A. Petersson, H. Nakatsuji, M. Caricato, X. Li, H. P. Hratchian, 
 A. F. Izmaylov, J. Bloino, G. Zheng, J. L. Sonnenberg, M. Hada, 
 M. Ehara, K. Toyota, R. Fukuda, J. Hasegawa, M. Ishida, T. Nakajima, 
 Y. Honda, O. Kitao, H. Nakai, T. Vreven, J. A. Montgomery, Jr., 
 J. E. Peralta, F. Ogliaro, M. Bearpark, J. J. Heyd, E. Brothers, 
 K. N. Kudin, V. N. Staroverov, T. Keith, R. Kobayashi, J. Normand, 
 K. Raghavachari, A. Rendell, J. C. Burant, S. S. Iyengar, J. Tomasi, 
 M. Cossi, N. Rega, J. M. Millam, M. Klene, J. E. Knox, J. B. Cross, 
 V. Bakken, C. Adamo, J. Jaramillo, R. Gomperts, R. E. Stratmann, 
 O. Yazyev, A. J. Austin, R. Cammi, C. Pomelli, J. W. Ochterski, 
 R. L. Martin, K. Morokuma, V. G. Zakrzewski, G. A. Voth, 
 P. Salvador, J. J. Dannenberg, S. Dapprich, A. D. Daniels, 
 O. Farkas, J. B. Foresman, J. V. Ortiz, J. Cioslowski, 
 and D. J. Fox, Gaussian, Inc., Wallingford CT, 2013.
 
 ******************************************
 Gaussian 09:  ES64L-G09RevD.01 24-Apr-2013
                18-Sep-2016 
 ******************************************
 % mem=4GB
 % nprocshared=4
 Will use up to    4 processors via shared memory.
 % chk=A_B_30.chk
 ------------------------------------------------
 # B3LYP/6-31+G* int=ultrafine nosymm pop=nboread
 ------------------------------------------------
 1/38=1/1;
 2/12=2,15=1,17=6,18=5,40=1/2;
 3/5=1,6=6,7=11,11=2,16=1,25=1,30=1,74=-5,75=-5/1,2,3;
 4//1;
 5/5=2,38=5/2;
 6/7=2,8=2,9=2,10=2,28=1,40=2/1,7;
 99/5=1,9=1/99;
 ------
 A_B_30
 ------
 Symbolic Z-matrix:
 Charge =  0 Multiplicity = 1
 C                     0.67275   0.        0. 
 C                    -0.67275   0.        0. 
 H                     1.24262   0.93481   0. 
 H                     1.24262  -0.93481   0. 
 H                    -1.24262   0.93481   0. 
 H                    -1.24262  -0.93481   0. 
 C                     0.67275   0.        5. 
 C                    -0.67275   0.        5. 
 H                     1.24262   0.80957   4.5326 
 H                     1.24262  -0.80957   5.4674 
 H                    -1.24262   0.80957   4.5326 
 H                    -1.24262  -0.80957   5.4674 
 
                          Input orientation:                          
 ---------------------------------------------------------------------
 Center     Atomic      Atomic             Coordinates (Angstroms)
 Number     Number       Type             X           Y           Z
 ---------------------------------------------------------------------
      1          6           0        0.672749    0.000000    0.000000
      2          6           0       -0.672749    0.000000    0.000000
      3          1           0        1.242623    0.934806    0.000000
      4          1           0        1.242623   -0.934806    0.000000
      5          1           0       -1.242623    0.934806    0.000000
      6          1           0       -1.242623   -0.934806    0.000000
      7          6           0        0.672749    0.000000    5.000000
      8          6           0       -0.672749    0.000000    5.000000
      9          1           0        1.242623    0.809566    4.532597
     10          1           0        1.242623   -0.809566    5.467403
     11          1           0       -1.242623    0.809566    4.532597
     12          1           0       -1.242623   -0.809566    5.467403
 ---------------------------------------------------------------------
                    Distance matrix (angstroms):
                    1          2          3          4          5
     1  C    0.000000
     2  C    1.345498   0.000000
     3  H    1.094814   2.131317   0.000000
     4  H    1.094814   2.131317   1.869612   0.000000
     5  H    2.131317   1.094814   2.485246   3.109967   0.000000
     6  H    2.131317   1.094814   3.109967   2.485246   1.869612
     7  C    5.000000   5.177873   5.118459   5.118459   5.435302
     8  C    5.177873   5.000000   5.435302   5.435302   5.118459
     9  H    4.639460   4.986831   4.534327   4.856673   5.170742
    10  H    5.556316   5.849491   5.738931   5.468837   6.253941
    11  H    4.986831   4.639460   5.170742   5.455613   4.534327
    12  H    5.849491   5.556316   6.253941   6.007048   5.738931
                    6          7          8          9         10
     6  H    0.000000
     7  C    5.435302   0.000000
     8  C    5.118459   1.345498   0.000000
     9  H    5.455613   1.094815   2.131317   0.000000
    10  H    6.007048   1.094815   2.131317   1.869612   0.000000
    11  H    4.856673   2.131317   1.094815   2.485246   3.109968
    12  H    5.468837   2.131317   1.094815   3.109968   2.485246
                   11         12
    11  H    0.000000
    12  H    1.869612   0.000000
 Symmetry turned off by external request.
 Stoichiometry    C4H8
 Framework group  CS[X(C4H8)]
 Deg. of freedom    15
 Full point group                 CS      NOp   2
 Rotational constants (GHZ):     12.5304422      1.4138973      1.3111313
 Standard basis: 6-31+G(d) (6D, 7F)
    92 basis functions,   160 primitive gaussians,    92 cartesian basis functions
    16 alpha electrons       16 beta electrons
       nuclear repulsion energy        92.3405349905 Hartrees.
 NAtoms=   12 NActive=   12 NUniq=   12 SFac= 1.00D+00 NAtFMM=   60 NAOKFM=F Big=F
 Integral buffers will be    131072 words long.
 Raffenetti 2 integral format.
 Two-electron integral symmetry is turned off.
 One-electron integrals computed using PRISM.
 NBasis=    92 RedAO= T EigKep=  1.52D-04  NBF=    92
 NBsUse=    92 1.00D-06 EigRej= -1.00D+00 NBFU=    92
 ExpMin= 4.38D-02 ExpMax= 3.05D+03 ExpMxC= 4.57D+02 IAcc=3 IRadAn=         5 AccDes= 0.00D+00
 Harris functional with IExCor=  402 and IRadAn=       5 diagonalized for initial guess.
 HarFok:  IExCor=  402 AccDes= 0.00D+00 IRadAn=         5 IDoV= 1 UseB2=F ITyADJ=14
 ICtDFT=  3500011 ScaDFX=  1.000000  1.000000  1.000000  1.000000
 FoFCou: FMM=F IPFlag=           0 FMFlag=      100000 FMFlg1=           0
         NFxFlg=           0 DoJE=T BraDBF=F KetDBF=T FulRan=T
         wScrn=  0.000000 ICntrl=     500 IOpCl=  0 I1Cent=   200000004 NGrid=           0
         NMat0=    1 NMatS0=      1 NMatT0=    0 NMatD0=    1 NMtDS0=    0 NMtDT0=    0
 Symmetry not used in FoFCou.
 Keep R1 ints in memory in canonical form, NReq=10115209.
 Requested convergence on RMS density matrix=1.00D-08 within 128 cycles.
 Requested convergence on MAX density matrix=1.00D-06.
 Requested convergence on             energy=1.00D-06.
 No special actions if energy rises.
 SCF Done:  E(RB3LYP) =  -157.185668307     A.U. after    9 cycles
            NFock=  9  Conv=0.38D-08     -V/T= 2.0119

 **********************************************************************

            Population analysis using the SCF density.

 **********************************************************************

 Alpha  occ. eigenvalues --  -10.19719 -10.19638 -10.19622 -10.19541  -0.76058
 Alpha  occ. eigenvalues --   -0.75956  -0.58311  -0.58213  -0.47130  -0.47026
 Alpha  occ. eigenvalues --   -0.42130  -0.42031  -0.36189  -0.36088  -0.27571
 Alpha  occ. eigenvalues --   -0.27192
 Alpha virt. eigenvalues --   -0.01264  -0.00333   0.01635   0.02532   0.03505
 Alpha virt. eigenvalues --    0.04138   0.04519   0.05990   0.07556   0.08088
 Alpha virt. eigenvalues --    0.08194   0.09570   0.10055   0.11906   0.13202
 Alpha virt. eigenvalues --    0.15130   0.15681   0.17141   0.17535   0.19163
 Alpha virt. eigenvalues --    0.19834   0.24295   0.24324   0.28802   0.34434
 Alpha virt. eigenvalues --    0.34693   0.34998   0.36626   0.57795   0.58877
 Alpha virt. eigenvalues --    0.65872   0.66407   0.68026   0.70681   0.72663
 Alpha virt. eigenvalues --    0.73200   0.76089   0.77976   0.83767   0.86514
 Alpha virt. eigenvalues --    0.90076   0.91068   0.93710   0.94464   0.96807
 Alpha virt. eigenvalues --    1.00666   1.00842   1.05532   1.16587   1.17136
 Alpha virt. eigenvalues --    1.22117   1.22422   1.44958   1.45096   1.54060
 Alpha virt. eigenvalues --    1.54365   1.81805   1.81951   1.88702   1.88835
 Alpha virt. eigenvalues --    2.00157   2.00400   2.10980   2.11125   2.29609
 Alpha virt. eigenvalues --    2.29846   2.37210   2.37380   2.66651   2.66775
 Alpha virt. eigenvalues --    2.70089   2.70940   4.11885   4.12495   4.25261
 Alpha virt. eigenvalues --    4.25597
          Condensed to atoms (all electrons):
               1          2          3          4          5          6
     1  C    5.009922   0.667198   0.383664   0.381635  -0.037967  -0.035439
     2  C    0.667198   5.009922  -0.037967  -0.035439   0.383664   0.381635
     3  H    0.383664  -0.037967   0.508937  -0.033275  -0.006685   0.003961
     4  H    0.381635  -0.035439  -0.033275   0.506671   0.003961  -0.006656
     5  H   -0.037967   0.383664  -0.006685   0.003961   0.508937  -0.033275
     6  H   -0.035439   0.381635   0.003961  -0.006656  -0.033275   0.506671
     7  C   -0.002096  -0.001885  -0.000043   0.000024   0.000066   0.000045
     8  C   -0.001885  -0.002096   0.000066   0.000045  -0.000043   0.000024
     9  H    0.000415  -0.000292  -0.000001  -0.000001   0.000000   0.000000
    10  H   -0.000009   0.000080   0.000000   0.000000   0.000000   0.000000
    11  H   -0.000292   0.000415   0.000000   0.000000  -0.000001  -0.000001
    12  H    0.000080  -0.000009   0.000000   0.000000   0.000000   0.000000
               7          8          9         10         11         12
     1  C   -0.002096  -0.001885   0.000415  -0.000009  -0.000292   0.000080
     2  C   -0.001885  -0.002096  -0.000292   0.000080   0.000415  -0.000009
     3  H   -0.000043   0.000066  -0.000001   0.000000   0.000000   0.000000
     4  H    0.000024   0.000045  -0.000001   0.000000   0.000000   0.000000
     5  H    0.000066  -0.000043   0.000000   0.000000  -0.000001   0.000000
     6  H    0.000045   0.000024   0.000000   0.000000  -0.000001   0.000000
     7  C    5.001021   0.672986   0.379425   0.384078  -0.033026  -0.038193
     8  C    0.672986   5.001021  -0.033026  -0.038193   0.379425   0.384078
     9  H    0.379425  -0.033026   0.507700  -0.033306  -0.006711   0.003966
    10  H    0.384078  -0.038193  -0.033306   0.508681   0.003966  -0.006716
    11  H   -0.033026   0.379425  -0.006711   0.003966   0.507700  -0.033306
    12  H   -0.038193   0.384078   0.003966  -0.006716  -0.033306   0.508681
 Mulliken charges:
               1
     1  C   -0.365225
     2  C   -0.365225
     3  H    0.181341
     4  H    0.183036
     5  H    0.181341
     6  H    0.183036
     7  C   -0.362402
     8  C   -0.362402
     9  H    0.181831
    10  H    0.181419
    11  H    0.181831
    12  H    0.181419
 Sum of Mulliken charges =   0.00000
 Mulliken charges with hydrogens summed into heavy atoms:
               1
     1  C   -0.000848
     2  C   -0.000848
     7  C    0.000848
     8  C    0.000848
 Electronic spatial extent (au):  <R**2>=           1597.5957
 Charge=              0.0000 electrons
 Dipole moment (field-independent basis, Debye):
    X=              0.0000    Y=             -0.0142    Z=             -0.0073  Tot=              0.0159
 Quadrupole moment (field-independent basis, Debye-Ang):
   XX=            -24.9078   YY=            -25.7703   ZZ=            -31.7755
   XY=              0.0000   XZ=              0.0000   YZ=             -1.5987
 Traceless Quadrupole moment (field-independent basis, Debye-Ang):
   XX=              2.5767   YY=              1.7142   ZZ=             -4.2910
   XY=              0.0000   XZ=              0.0000   YZ=             -1.5987
 Octapole moment (field-independent basis, Debye-Ang**2):
  XXX=              0.0000  YYY=             -0.0354  ZZZ=           -231.3495  XYY=              0.0000
  XXY=             -0.0224  XXZ=            -62.2820  XZZ=              0.0000  YZZ=            -16.0380
  YYZ=            -66.7581  XYZ=              0.0000
 Hexadecapole moment (field-independent basis, Debye-Ang**3):
 XXXX=           -144.0172 YYYY=            -56.6872 ZZZZ=          -2353.3492 XXXY=              0.0000
 XXXZ=              0.0000 YYYX=              0.0000 YYYZ=              0.9441 ZZZX=              0.0000
 ZZZY=           -118.8129 XXYY=            -29.2142 XXZZ=           -345.0408 YYZZ=           -351.8943
 XXYZ=             -1.0704 YYXZ=              0.0000 ZZXY=              0.0000
 N-N= 9.234053499050D+01 E-N=-5.470720683859D+02  KE= 1.553422656794D+02
 ******************************Gaussian NBO Version 3.1******************************
             N A T U R A L   A T O M I C   O R B I T A L   A N D
          N A T U R A L   B O N D   O R B I T A L   A N A L Y S I S
 ******************************Gaussian NBO Version 3.1******************************

       /RESON  / : Allow strongly delocalized NBO set
       /FAO    / : Write the AO Fock matrix to LFN 44
       /SAO    / : Write the AO overlap matrix to LFN 43

 Analyzing the SCF density

 Job title: A_B_30                                                          

 Storage needed:     25928 in NPA,     34295 in NBO ( 536870096 available)


 NATURAL POPULATIONS:  Natural atomic orbital occupancies 
                                                          
   NAO  Atom  No  lang   Type(AO)    Occupancy      Energy
 ----------------------------------------------------------
     1    C    1  S      Cor( 1S)     1.99926     -10.06405
     2    C    1  S      Val( 2S)     1.08280      -0.25056
     3    C    1  S      Ryd( 4S)     0.00147       0.85385
     4    C    1  S      Ryd( 3S)     0.00023       0.61369
     5    C    1  S      Ryd( 5S)     0.00000       3.94340
     6    C    1  px     Val( 2p)     1.13204      -0.05478
     7    C    1  px     Ryd( 4p)     0.00375       0.41871
     8    C    1  px     Ryd( 3p)     0.00010       0.34490
     9    C    1  py     Val( 2p)     1.21732      -0.05241
    10    C    1  py     Ryd( 4p)     0.00332       0.82889
    11    C    1  py     Ryd( 3p)     0.00030       0.36169
    12    C    1  pz     Val( 2p)     0.99633      -0.11711
    13    C    1  pz     Ryd( 4p)     0.00271       0.43898
    14    C    1  pz     Ryd( 3p)     0.00028       0.38774
    15    C    1  dxy    Ryd( 3d)     0.00104       2.24702
    16    C    1  dxz    Ryd( 3d)     0.00063       1.90370
    17    C    1  dyz    Ryd( 3d)     0.00000       1.67928
    18    C    1  dx2y2  Ryd( 3d)     0.00059       2.29676
    19    C    1  dz2    Ryd( 3d)     0.00057       2.10638

    20    C    2  S      Cor( 1S)     1.99926     -10.06405
    21    C    2  S      Val( 2S)     1.08280      -0.25056
    22    C    2  S      Ryd( 4S)     0.00147       0.85385
    23    C    2  S      Ryd( 3S)     0.00023       0.61369
    24    C    2  S      Ryd( 5S)     0.00000       3.94340
    25    C    2  px     Val( 2p)     1.13204      -0.05478
    26    C    2  px     Ryd( 4p)     0.00375       0.41871
    27    C    2  px     Ryd( 3p)     0.00010       0.34490
    28    C    2  py     Val( 2p)     1.21732      -0.05241
    29    C    2  py     Ryd( 4p)     0.00332       0.82889
    30    C    2  py     Ryd( 3p)     0.00030       0.36169
    31    C    2  pz     Val( 2p)     0.99633      -0.11711
    32    C    2  pz     Ryd( 4p)     0.00271       0.43898
    33    C    2  pz     Ryd( 3p)     0.00028       0.38774
    34    C    2  dxy    Ryd( 3d)     0.00104       2.24702
    35    C    2  dxz    Ryd( 3d)     0.00063       1.90370
    36    C    2  dyz    Ryd( 3d)     0.00000       1.67928
    37    C    2  dx2y2  Ryd( 3d)     0.00059       2.29676
    38    C    2  dz2    Ryd( 3d)     0.00057       2.10638

    39    H    3  S      Val( 1S)     0.77840       0.07980
    40    H    3  S      Ryd( 2S)     0.00088       0.61570

    41    H    4  S      Val( 1S)     0.77707       0.08119
    42    H    4  S      Ryd( 2S)     0.00088       0.61625

    43    H    5  S      Val( 1S)     0.77840       0.07980
    44    H    5  S      Ryd( 2S)     0.00088       0.61570

    45    H    6  S      Val( 1S)     0.77707       0.08119
    46    H    6  S      Ryd( 2S)     0.00088       0.61625

    47    C    7  S      Cor( 1S)     1.99926     -10.06310
    48    C    7  S      Val( 2S)     1.08277      -0.24943
    49    C    7  S      Ryd( 4S)     0.00146       0.85781
    50    C    7  S      Ryd( 3S)     0.00023       0.63023
    51    C    7  S      Ryd( 5S)     0.00000       3.91781
    52    C    7  px     Val( 2p)     1.13202      -0.05378
    53    C    7  px     Ryd( 4p)     0.00374       0.42013
    54    C    7  px     Ryd( 3p)     0.00009       0.34539
    55    C    7  py     Val( 2p)     1.16218      -0.06760
    56    C    7  py     Ryd( 4p)     0.00319       0.73234
    57    C    7  py     Ryd( 3p)     0.00030       0.35533
    58    C    7  pz     Val( 2p)     1.05134      -0.09984
    59    C    7  pz     Ryd( 4p)     0.00283       0.53970
    60    C    7  pz     Ryd( 3p)     0.00029       0.39597
    61    C    7  dxy    Ryd( 3d)     0.00094       2.16224
    62    C    7  dxz    Ryd( 3d)     0.00074       1.99051
    63    C    7  dyz    Ryd( 3d)     0.00053       1.94317
    64    C    7  dx2y2  Ryd( 3d)     0.00042       2.22781
    65    C    7  dz2    Ryd( 3d)     0.00021       1.91494

    66    C    8  S      Cor( 1S)     1.99926     -10.06310
    67    C    8  S      Val( 2S)     1.08277      -0.24943
    68    C    8  S      Ryd( 4S)     0.00146       0.85781
    69    C    8  S      Ryd( 3S)     0.00023       0.63023
    70    C    8  S      Ryd( 5S)     0.00000       3.91781
    71    C    8  px     Val( 2p)     1.13202      -0.05378
    72    C    8  px     Ryd( 4p)     0.00374       0.42013
    73    C    8  px     Ryd( 3p)     0.00009       0.34539
    74    C    8  py     Val( 2p)     1.16218      -0.06760
    75    C    8  py     Ryd( 4p)     0.00319       0.73234
    76    C    8  py     Ryd( 3p)     0.00030       0.35533
    77    C    8  pz     Val( 2p)     1.05134      -0.09984
    78    C    8  pz     Ryd( 4p)     0.00283       0.53970
    79    C    8  pz     Ryd( 3p)     0.00029       0.39597
    80    C    8  dxy    Ryd( 3d)     0.00094       2.16224
    81    C    8  dxz    Ryd( 3d)     0.00074       1.99051
    82    C    8  dyz    Ryd( 3d)     0.00053       1.94317
    83    C    8  dx2y2  Ryd( 3d)     0.00042       2.22781
    84    C    8  dz2    Ryd( 3d)     0.00021       1.91494

    85    H    9  S      Val( 1S)     0.77733       0.08209
    86    H    9  S      Ryd( 2S)     0.00091       0.61696

    87    H   10  S      Val( 1S)     0.77834       0.08091
    88    H   10  S      Ryd( 2S)     0.00089       0.61645

    89    H   11  S      Val( 1S)     0.77733       0.08209
    90    H   11  S      Ryd( 2S)     0.00091       0.61696

    91    H   12  S      Val( 1S)     0.77834       0.08091
    92    H   12  S      Ryd( 2S)     0.00089       0.61645

 WARNING:  Population inversion found on atom  C    1
           Population inversion found on atom  C    2
           Population inversion found on atom  C    7
           Population inversion found on atom  C    8


 Summary of Natural Population Analysis:                  
                                                          
                                       Natural Population 
                Natural  -----------------------------------------------
    Atom  No    Charge         Core      Valence    Rydberg      Total
 -----------------------------------------------------------------------
      C    1   -0.44275      1.99926     4.42849    0.01499     6.44275
      C    2   -0.44275      1.99926     4.42849    0.01499     6.44275
      H    3    0.22072      0.00000     0.77840    0.00088     0.77928
      H    4    0.22205      0.00000     0.77707    0.00088     0.77795
      H    5    0.22072      0.00000     0.77840    0.00088     0.77928
      H    6    0.22205      0.00000     0.77707    0.00088     0.77795
      C    7   -0.44255      1.99926     4.42832    0.01497     6.44255
      C    8   -0.44255      1.99926     4.42832    0.01497     6.44255
      H    9    0.22176      0.00000     0.77733    0.00091     0.77824
      H   10    0.22077      0.00000     0.77834    0.00089     0.77923
      H   11    0.22176      0.00000     0.77733    0.00091     0.77824
      H   12    0.22077      0.00000     0.77834    0.00089     0.77923
 =======================================================================
   * Total *    0.00000      7.99704    23.93591    0.06705    32.00000

                                 Natural Population      
 --------------------------------------------------------
   Core                       7.99704 ( 99.9631% of   8)
   Valence                   23.93591 ( 99.7329% of  24)
   Natural Minimal Basis     31.93295 ( 99.7905% of  32)
   Natural Rydberg Basis      0.06705 (  0.2095% of  32)
 --------------------------------------------------------

    Atom  No          Natural Electron Configuration
 ----------------------------------------------------------------------------
      C    1      [core]2S( 1.08)2p( 3.35)4p( 0.01)
      C    2      [core]2S( 1.08)2p( 3.35)4p( 0.01)
      H    3            1S( 0.78)
      H    4            1S( 0.78)
      H    5            1S( 0.78)
      H    6            1S( 0.78)
      C    7      [core]2S( 1.08)2p( 3.35)4p( 0.01)
      C    8      [core]2S( 1.08)2p( 3.35)4p( 0.01)
      H    9            1S( 0.78)
      H   10            1S( 0.78)
      H   11            1S( 0.78)
      H   12            1S( 0.78)


 NATURAL BOND ORBITAL ANALYSIS:

                       Occupancies       Lewis Structure    Low   High
           Occ.    -------------------  -----------------   occ   occ
  Cycle   Thresh.   Lewis   Non-Lewis     CR  BD  3C  LP    (L)   (NL)   Dev
 =============================================================================
   1(1)    1.90    31.88811   0.11189      4  12   0   0     0      0    0.04
 -----------------------------------------------------------------------------

 Structure accepted: No low occupancy Lewis orbitals

 --------------------------------------------------------
   Core                      7.99706 ( 99.963% of   8)
   Valence Lewis            23.89105 ( 99.546% of  24)
  ==================       ============================
   Total Lewis              31.88811 ( 99.650% of  32)
  -----------------------------------------------------
   Valence non-Lewis         0.08261 (  0.258% of  32)
   Rydberg non-Lewis         0.02928 (  0.092% of  32)
  ==================       ============================
   Total non-Lewis           0.11189 (  0.350% of  32)
 --------------------------------------------------------


       (Occupancy)   Bond orbital/ Coefficients/ Hybrids
 ---------------------------------------------------------------------------------
     1. (1.99806) BD ( 1) C   1 - C   2  
                ( 50.00%)   0.7071* C   1 s( 31.20%)p 2.20( 68.75%)d 0.00(  0.05%)
                                            0.0000  0.5581 -0.0237 -0.0049  0.0001
                                           -0.6956  0.0419  0.0024  0.0002 -0.0001
                                            0.0002 -0.4486 -0.0233  0.0074  0.0000
                                            0.0114  0.0000  0.0152 -0.0102
                ( 50.00%)   0.7071* C   2 s( 31.20%)p 2.20( 68.75%)d 0.00(  0.05%)
                                            0.0000  0.5581 -0.0237 -0.0049  0.0001
                                            0.6956 -0.0419 -0.0024  0.0002 -0.0001
                                            0.0002 -0.4486 -0.0233  0.0074  0.0000
                                           -0.0114  0.0000  0.0152 -0.0102
     2. (1.99927) BD ( 2) C   1 - C   2  
                ( 50.00%)   0.7071* C   1 s(  7.92%)p11.63( 92.03%)d 0.01(  0.06%)
                                            0.0000  0.2810 -0.0140  0.0007 -0.0003
                                           -0.3497  0.0214  0.0004  0.0000  0.0003
                                           -0.0003  0.8917  0.0460 -0.0133  0.0000
                                           -0.0225  0.0001  0.0076 -0.0051
                ( 50.00%)   0.7071* C   2 s(  7.92%)p11.63( 92.03%)d 0.01(  0.06%)
                                            0.0000  0.2810 -0.0140  0.0007 -0.0003
                                            0.3497 -0.0214 -0.0004  0.0000  0.0003
                                           -0.0003  0.8917  0.0460 -0.0133  0.0000
                                            0.0225  0.0001  0.0076 -0.0051
     3. (1.98707) BD ( 1) C   1 - H   3  
                ( 61.12%)   0.7818* C   1 s( 30.44%)p 2.28( 69.50%)d 0.00(  0.06%)
                                           -0.0002  0.5516  0.0123  0.0018  0.0000
                                            0.4414 -0.0152 -0.0010  0.7069  0.0037
                                            0.0105  0.0000 -0.0002  0.0009  0.0180
                                            0.0000  0.0000 -0.0106 -0.0136
                ( 38.88%)   0.6235* H   3 s(100.00%)
                                            1.0000  0.0023
     4. (1.98702) BD ( 1) C   1 - H   4  
                ( 61.19%)   0.7822* C   1 s( 30.48%)p 2.28( 69.46%)d 0.00(  0.06%)
                                           -0.0002  0.5520  0.0122  0.0020  0.0000
                                            0.4414 -0.0149 -0.0009 -0.7066 -0.0036
                                           -0.0105 -0.0002 -0.0005  0.0010 -0.0180
                                            0.0000  0.0001 -0.0106 -0.0136
                ( 38.81%)   0.6230* H   4 s(100.00%)
                                            1.0000  0.0023
     5. (1.98707) BD ( 1) C   2 - H   5  
                ( 61.12%)   0.7818* C   2 s( 30.44%)p 2.28( 69.50%)d 0.00(  0.06%)
                                            0.0002 -0.5516 -0.0123 -0.0018  0.0000
                                            0.4414 -0.0152 -0.0010 -0.7069 -0.0037
                                           -0.0105  0.0000  0.0002 -0.0009  0.0180
                                            0.0000  0.0000  0.0106  0.0136
                ( 38.88%)   0.6235* H   5 s(100.00%)
                                           -1.0000 -0.0023
     6. (1.98702) BD ( 1) C   2 - H   6  
                ( 61.19%)   0.7822* C   2 s( 30.48%)p 2.28( 69.46%)d 0.00(  0.06%)
                                            0.0002 -0.5520 -0.0122 -0.0020  0.0000
                                            0.4414 -0.0149 -0.0009  0.7066  0.0036
                                            0.0105  0.0002  0.0005 -0.0010 -0.0180
                                            0.0000 -0.0001  0.0106  0.0136
                ( 38.81%)   0.6230* H   6 s(100.00%)
                                           -1.0000 -0.0023
     7. (1.99907) BD ( 1) C   7 - C   8  
                ( 50.00%)   0.7071* C   7 s( 13.70%)p 6.30( 86.24%)d 0.00(  0.06%)
                                            0.0000  0.3698 -0.0148 -0.0046  0.0002
                                           -0.4614  0.0274  0.0020  0.4019  0.0211
                                           -0.0069  0.6967  0.0358 -0.0106 -0.0101
                                           -0.0177 -0.0007  0.0104 -0.0063
                ( 50.00%)   0.7071* C   8 s( 13.70%)p 6.30( 86.24%)d 0.00(  0.06%)
                                            0.0000  0.3698 -0.0148 -0.0046  0.0002
                                            0.4614 -0.0274 -0.0020  0.4019  0.0211
                                           -0.0069  0.6967  0.0358 -0.0106  0.0101
                                            0.0177 -0.0007  0.0104 -0.0063
     8. (1.99832) BD ( 2) C   7 - C   8  
                ( 50.00%)   0.7071* C   7 s( 25.42%)p 2.93( 74.53%)d 0.00(  0.05%)
                                            0.0000  0.5037 -0.0232 -0.0015 -0.0003
                                           -0.6271  0.0382  0.0014 -0.2956 -0.0156
                                            0.0051 -0.5121 -0.0261  0.0070  0.0074
                                            0.0129 -0.0009  0.0139 -0.0089
                ( 50.00%)   0.7071* C   8 s( 25.42%)p 2.93( 74.53%)d 0.00(  0.05%)
                                            0.0000  0.5037 -0.0232 -0.0015 -0.0003
                                            0.6271 -0.0382 -0.0014 -0.2956 -0.0156
                                            0.0051 -0.5121 -0.0261  0.0070 -0.0074
                                           -0.0129 -0.0009  0.0139 -0.0089
     9. (1.98701) BD ( 1) C   7 - H   9  
                ( 61.18%)   0.7821* C   7 s( 30.48%)p 2.28( 69.46%)d 0.00(  0.06%)
                                           -0.0002  0.5519  0.0122  0.0020  0.0000
                                            0.4415 -0.0148 -0.0008  0.6122  0.0034
                                            0.0091 -0.3529 -0.0011 -0.0065  0.0156
                                           -0.0089 -0.0147 -0.0064 -0.0063
                ( 38.82%)   0.6231* H   9 s(100.00%)
                                            1.0000  0.0023
    10. (1.98706) BD ( 1) C   7 - H  10  
                ( 61.13%)   0.7818* C   7 s( 30.44%)p 2.28( 69.50%)d 0.00(  0.06%)
                                           -0.0002  0.5516  0.0123  0.0017  0.0001
                                            0.4414 -0.0151 -0.0011 -0.6122 -0.0032
                                           -0.0090  0.3536  0.0021  0.0044 -0.0156
                                            0.0090 -0.0148 -0.0063 -0.0062
                ( 38.87%)   0.6235* H  10 s(100.00%)
                                            1.0000  0.0023
    11. (1.98701) BD ( 1) C   8 - H  11  
                ( 61.18%)   0.7821* C   8 s( 30.48%)p 2.28( 69.46%)d 0.00(  0.06%)
                                            0.0002 -0.5519 -0.0122 -0.0020  0.0000
                                            0.4415 -0.0148 -0.0008 -0.6122 -0.0034
                                           -0.0091  0.3529  0.0011  0.0065  0.0156
                                           -0.0089  0.0147  0.0064  0.0063
                ( 38.82%)   0.6231* H  11 s(100.00%)
                                           -1.0000 -0.0023
    12. (1.98706) BD ( 1) C   8 - H  12  
                ( 61.13%)   0.7818* C   8 s( 30.44%)p 2.28( 69.50%)d 0.00(  0.06%)
                                            0.0002 -0.5516 -0.0123 -0.0017 -0.0001
                                            0.4414 -0.0151 -0.0011  0.6122  0.0032
                                            0.0090 -0.3536 -0.0021 -0.0044 -0.0156
                                            0.0090  0.0148  0.0063  0.0062
                ( 38.87%)   0.6235* H  12 s(100.00%)
                                           -1.0000 -0.0023
    13. (1.99927) CR ( 1) C   1           s(100.00%)p 0.00(  0.00%)
                                            1.0000  0.0002  0.0000  0.0000  0.0000
                                            0.0002  0.0000  0.0000  0.0000  0.0000
                                            0.0000  0.0000  0.0000  0.0000  0.0000
                                            0.0000  0.0000  0.0000  0.0000
    14. (1.99927) CR ( 1) C   2           s(100.00%)p 0.00(  0.00%)
                                            1.0000  0.0002  0.0000  0.0000  0.0000
                                           -0.0002  0.0000  0.0000  0.0000  0.0000
                                            0.0000  0.0000  0.0000  0.0000  0.0000
                                            0.0000  0.0000  0.0000  0.0000
    15. (1.99926) CR ( 1) C   7           s(100.00%)p 0.00(  0.00%)
                                            1.0000  0.0002  0.0000  0.0000  0.0000
                                            0.0002  0.0000  0.0000  0.0000  0.0000
                                            0.0000  0.0000  0.0000  0.0000  0.0000
                                            0.0000  0.0000  0.0000  0.0000
    16. (1.99926) CR ( 1) C   8           s(100.00%)p 0.00(  0.00%)
                                            1.0000  0.0002  0.0000  0.0000  0.0000
                                           -0.0002  0.0000  0.0000  0.0000  0.0000
                                            0.0000  0.0000  0.0000  0.0000  0.0000
                                            0.0000  0.0000  0.0000  0.0000
    17. (0.00371) RY*( 1) C   1           s(  0.00%)p 1.00( 91.21%)d 0.10(  8.79%)
                                            0.0000  0.0000  0.0004  0.0000 -0.0001
                                           -0.0001 -0.0007  0.0015  0.0141 -0.9486
                                           -0.1104  0.0003 -0.0002 -0.0003 -0.2964
                                            0.0001 -0.0001 -0.0001  0.0001
    18. (0.00158) RY*( 2) C   1           s( 27.86%)p 2.58( 71.96%)d 0.01(  0.18%)
                                            0.0000  0.0113  0.4739 -0.2317 -0.0129
                                           -0.0562 -0.8162 -0.2234 -0.0003  0.0002
                                            0.0001  0.0013  0.0108  0.0127  0.0008
                                            0.0000 -0.0003 -0.0185 -0.0384
    19. (0.00017) RY*( 3) C   1           s( 52.93%)p 0.87( 45.92%)d 0.02(  1.15%)
                                            0.0000  0.0038 -0.2373  0.6837 -0.0745
                                           -0.0117 -0.2743 -0.2076  0.0004  0.0023
                                           -0.0126  0.0255 -0.4348  0.3884 -0.0033
                                           -0.0169  0.0045 -0.0773  0.0721
    20. (0.00007) RY*( 4) C   1           s( 47.14%)p 0.98( 46.17%)d 0.14(  6.69%)
    21. (0.00000) RY*( 5) C   1           s(  0.04%)p99.99( 99.96%)d 0.15(  0.01%)
    22. (0.00000) RY*( 6) C   1           s( 98.73%)p 0.01(  1.24%)d 0.00(  0.03%)
    23. (0.00000) RY*( 7) C   1           s(  0.00%)p 1.00(100.00%)d 0.00(  0.00%)
    24. (0.00000) RY*( 8) C   1           s( 60.86%)p 0.64( 39.01%)d 0.00(  0.13%)
    25. (0.00001) RY*( 9) C   1           s(  6.35%)p14.75( 93.64%)d 0.00(  0.01%)
    26. (0.00000) RY*(10) C   1           s(  0.00%)p 1.00(  8.85%)d10.30( 91.15%)
    27. (0.00000) RY*(11) C   1           s(  0.01%)p 1.00(  0.12%)d99.99( 99.87%)
    28. (0.00000) RY*(12) C   1           s(  0.00%)p 0.00(  0.00%)d 1.00(100.00%)
    29. (0.00000) RY*(13) C   1           s(  2.03%)p 0.35(  0.71%)d47.92( 97.26%)
    30. (0.00001) RY*(14) C   1           s(  4.01%)p 0.37(  1.47%)d23.59( 94.53%)
    31. (0.00371) RY*( 1) C   2           s(  0.00%)p 1.00( 91.21%)d 0.10(  8.79%)
                                            0.0000  0.0000  0.0004  0.0000 -0.0001
                                            0.0001  0.0007 -0.0015  0.0141 -0.9486
                                           -0.1104  0.0003 -0.0002 -0.0003  0.2964
                                           -0.0001 -0.0001 -0.0001  0.0001
    32. (0.00158) RY*( 2) C   2           s( 27.86%)p 2.58( 71.96%)d 0.01(  0.18%)
                                            0.0000  0.0113  0.4739 -0.2317 -0.0129
                                            0.0562  0.8162  0.2234 -0.0003  0.0002
                                            0.0001  0.0013  0.0108  0.0127 -0.0008
                                            0.0000 -0.0003 -0.0185 -0.0384
    33. (0.00017) RY*( 3) C   2           s( 52.93%)p 0.87( 45.92%)d 0.02(  1.15%)
                                            0.0000  0.0038 -0.2373  0.6837 -0.0745
                                            0.0117  0.2743  0.2076  0.0004  0.0023
                                           -0.0126  0.0255 -0.4348  0.3884  0.0033
                                            0.0169  0.0045 -0.0773  0.0721
    34. (0.00007) RY*( 4) C   2           s( 47.14%)p 0.98( 46.17%)d 0.14(  6.69%)
    35. (0.00000) RY*( 5) C   2           s(  0.04%)p99.99( 99.96%)d 0.15(  0.01%)
    36. (0.00000) RY*( 6) C   2           s( 98.73%)p 0.01(  1.24%)d 0.00(  0.03%)
    37. (0.00000) RY*( 7) C   2           s(  0.00%)p 1.00(100.00%)d 0.00(  0.00%)
    38. (0.00000) RY*( 8) C   2           s( 60.86%)p 0.64( 39.01%)d 0.00(  0.13%)
    39. (0.00001) RY*( 9) C   2           s(  6.35%)p14.75( 93.64%)d 0.00(  0.01%)
    40. (0.00000) RY*(10) C   2           s(  0.00%)p 1.00(  8.85%)d10.30( 91.15%)
    41. (0.00000) RY*(11) C   2           s(  0.01%)p 1.00(  0.12%)d99.99( 99.87%)
    42. (0.00000) RY*(12) C   2           s(  0.00%)p 0.00(  0.00%)d 1.00(100.00%)
    43. (0.00000) RY*(13) C   2           s(  2.03%)p 0.35(  0.71%)d47.92( 97.26%)
    44. (0.00001) RY*(14) C   2           s(  4.01%)p 0.37(  1.47%)d23.59( 94.53%)
    45. (0.00089) RY*( 1) H   3           s(100.00%)
                                           -0.0023  1.0000
    46. (0.00088) RY*( 1) H   4           s(100.00%)
                                           -0.0023  1.0000
    47. (0.00089) RY*( 1) H   5           s(100.00%)
                                           -0.0023  1.0000
    48. (0.00088) RY*( 1) H   6           s(100.00%)
                                           -0.0023  1.0000
    49. (0.00371) RY*( 1) C   7           s(  0.00%)p 1.00( 91.23%)d 0.10(  8.77%)
                                            0.0000  0.0002  0.0015  0.0009 -0.0006
                                           -0.0002 -0.0027  0.0060 -0.0124  0.8209
                                            0.0928  0.0067 -0.4755 -0.0587  0.2563
                                           -0.1483 -0.0001  0.0001  0.0006
    50. (0.00158) RY*( 2) C   7           s( 27.55%)p 2.62( 72.26%)d 0.01(  0.18%)
                                            0.0000  0.0113  0.4685 -0.2363 -0.0093
                                           -0.0561 -0.8180 -0.2240 -0.0005 -0.0063
                                           -0.0015 -0.0014 -0.0082 -0.0119 -0.0015
                                            0.0014 -0.0376 -0.0073 -0.0189
    51. (0.00015) RY*( 3) C   7           s( 56.34%)p 0.74( 41.91%)d 0.03(  1.75%)
                                            0.0000  0.0037 -0.1344  0.7370 -0.0465
                                           -0.0133 -0.2309 -0.2131 -0.0149  0.1599
                                            0.0397 -0.0169  0.3548 -0.4082  0.0363
                                           -0.0040  0.0375 -0.1109  0.0498
    52. (0.00007) RY*( 4) C   7           s( 35.48%)p 1.63( 57.91%)d 0.19(  6.61%)
    53. (0.00000) RY*( 5) C   7           s(  0.01%)p 1.00( 99.97%)d 0.00(  0.02%)
    54. (0.00000) RY*( 6) C   7           s( 99.57%)p 0.00(  0.43%)d 0.00(  0.01%)
    55. (0.00000) RY*( 7) C   7           s(  0.01%)p 1.00( 99.99%)d 0.00(  0.00%)
    56. (0.00000) RY*( 8) C   7           s( 70.50%)p 0.42( 29.46%)d 0.00(  0.04%)
    57. (0.00000) RY*( 9) C   7           s(  4.10%)p23.38( 95.88%)d 0.00(  0.02%)
    58. (0.00000) RY*(10) C   7           s(  0.02%)p99.99(  7.13%)d99.99( 92.86%)
    59. (0.00000) RY*(11) C   7           s(  0.00%)p 1.00(  2.11%)d46.28( 97.88%)
    60. (0.00000) RY*(12) C   7           s(  0.86%)p 0.33(  0.29%)d99.99( 98.85%)
    61. (0.00000) RY*(13) C   7           s(  3.01%)p 0.12(  0.36%)d32.09( 96.63%)
    62. (0.00000) RY*(14) C   7           s(  2.51%)p 0.54(  1.35%)d38.37( 96.14%)
    63. (0.00371) RY*( 1) C   8           s(  0.00%)p 1.00( 91.23%)d 0.10(  8.77%)
                                            0.0000  0.0002  0.0015  0.0009 -0.0006
                                            0.0002  0.0027 -0.0060 -0.0124  0.8209
                                            0.0928  0.0067 -0.4755 -0.0587 -0.2563
                                            0.1483 -0.0001  0.0001  0.0006
    64. (0.00158) RY*( 2) C   8           s( 27.55%)p 2.62( 72.26%)d 0.01(  0.18%)
                                            0.0000  0.0113  0.4685 -0.2363 -0.0093
                                            0.0561  0.8180  0.2240 -0.0005 -0.0063
                                           -0.0015 -0.0014 -0.0082 -0.0119  0.0015
                                           -0.0014 -0.0376 -0.0073 -0.0189
    65. (0.00015) RY*( 3) C   8           s( 56.34%)p 0.74( 41.91%)d 0.03(  1.75%)
                                            0.0000  0.0037 -0.1344  0.7370 -0.0465
                                            0.0133  0.2309  0.2131 -0.0149  0.1599
                                            0.0397 -0.0169  0.3548 -0.4082 -0.0363
                                            0.0040  0.0375 -0.1109  0.0498
    66. (0.00007) RY*( 4) C   8           s( 35.48%)p 1.63( 57.91%)d 0.19(  6.61%)
    67. (0.00000) RY*( 5) C   8           s(  0.01%)p 1.00( 99.97%)d 0.00(  0.02%)
    68. (0.00000) RY*( 6) C   8           s( 99.57%)p 0.00(  0.43%)d 0.00(  0.01%)
    69. (0.00000) RY*( 7) C   8           s(  0.01%)p 1.00( 99.99%)d 0.00(  0.00%)
    70. (0.00000) RY*( 8) C   8           s( 70.50%)p 0.42( 29.46%)d 0.00(  0.04%)
    71. (0.00000) RY*( 9) C   8           s(  4.10%)p23.38( 95.88%)d 0.00(  0.02%)
    72. (0.00000) RY*(10) C   8           s(  0.02%)p99.99(  7.13%)d99.99( 92.86%)
    73. (0.00000) RY*(11) C   8           s(  0.00%)p 1.00(  2.11%)d46.28( 97.88%)
    74. (0.00000) RY*(12) C   8           s(  0.86%)p 0.33(  0.29%)d99.99( 98.85%)
    75. (0.00000) RY*(13) C   8           s(  3.01%)p 0.12(  0.36%)d32.09( 96.63%)
    76. (0.00000) RY*(14) C   8           s(  2.51%)p 0.54(  1.35%)d38.37( 96.14%)
    77. (0.00092) RY*( 1) H   9           s(100.00%)
                                           -0.0023  1.0000
    78. (0.00089) RY*( 1) H  10           s(100.00%)
                                           -0.0023  1.0000
    79. (0.00092) RY*( 1) H  11           s(100.00%)
                                           -0.0023  1.0000
    80. (0.00089) RY*( 1) H  12           s(100.00%)
                                           -0.0023  1.0000
    81. (0.00232) BD*( 1) C   1 - C   2  
                ( 50.00%)   0.7071* C   1 s( 31.20%)p 2.20( 68.75%)d 0.00(  0.05%)
                                            0.0000 -0.5581  0.0237  0.0049 -0.0001
                                            0.6956 -0.0419 -0.0024 -0.0002  0.0001
                                           -0.0002  0.4486  0.0233 -0.0074  0.0000
                                           -0.0114  0.0000 -0.0152  0.0102
                ( 50.00%)  -0.7071* C   2 s( 31.20%)p 2.20( 68.75%)d 0.00(  0.05%)
                                            0.0000 -0.5581  0.0237  0.0049 -0.0001
                                           -0.6956  0.0419  0.0024 -0.0002  0.0001
                                           -0.0002  0.4486  0.0233 -0.0074  0.0000
                                            0.0114  0.0000 -0.0152  0.0102
    82. (0.00060) BD*( 2) C   1 - C   2  
                ( 50.00%)   0.7071* C   1 s(  7.92%)p11.63( 92.03%)d 0.01(  0.06%)
                                            0.0000 -0.2810  0.0140 -0.0007  0.0003
                                            0.3497 -0.0214 -0.0004  0.0000 -0.0003
                                            0.0003 -0.8917 -0.0460  0.0133  0.0000
                                            0.0225 -0.0001 -0.0076  0.0051
                ( 50.00%)  -0.7071* C   2 s(  7.92%)p11.63( 92.03%)d 0.01(  0.06%)
                                            0.0000 -0.2810  0.0140 -0.0007  0.0003
                                           -0.3497  0.0214  0.0004  0.0000 -0.0003
                                            0.0003 -0.8917 -0.0460  0.0133  0.0000
                                           -0.0225 -0.0001 -0.0076  0.0051
    83. (0.00961) BD*( 1) C   1 - H   3  
                ( 38.88%)   0.6235* C   1 s( 30.44%)p 2.28( 69.50%)d 0.00(  0.06%)
                                            0.0002 -0.5516 -0.0123 -0.0018  0.0000
                                           -0.4414  0.0152  0.0010 -0.7069 -0.0037
                                           -0.0105  0.0000  0.0002 -0.0009 -0.0180
                                            0.0000  0.0000  0.0106  0.0136
                ( 61.12%)  -0.7818* H   3 s(100.00%)
                                           -1.0000 -0.0023
    84. (0.00958) BD*( 1) C   1 - H   4  
                ( 38.81%)   0.6230* C   1 s( 30.48%)p 2.28( 69.46%)d 0.00(  0.06%)
                                            0.0002 -0.5520 -0.0122 -0.0020  0.0000
                                           -0.4414  0.0149  0.0009  0.7066  0.0036
                                            0.0105  0.0002  0.0005 -0.0010  0.0180
                                            0.0000 -0.0001  0.0106  0.0136
                ( 61.19%)  -0.7822* H   4 s(100.00%)
                                           -1.0000 -0.0023
    85. (0.00961) BD*( 1) C   2 - H   5  
                ( 38.88%)   0.6235* C   2 s( 30.44%)p 2.28( 69.50%)d 0.00(  0.06%)
                                           -0.0002  0.5516  0.0123  0.0018  0.0000
                                           -0.4414  0.0152  0.0010  0.7069  0.0037
                                            0.0105  0.0000 -0.0002  0.0009 -0.0180
                                            0.0000  0.0000 -0.0106 -0.0136
                ( 61.12%)  -0.7818* H   5 s(100.00%)
                                            1.0000  0.0023
    86. (0.00958) BD*( 1) C   2 - H   6  
                ( 38.81%)   0.6230* C   2 s( 30.48%)p 2.28( 69.46%)d 0.00(  0.06%)
                                           -0.0002  0.5520  0.0122  0.0020  0.0000
                                           -0.4414  0.0149  0.0009 -0.7066 -0.0036
                                           -0.0105 -0.0002 -0.0005  0.0010  0.0180
                                            0.0000  0.0001 -0.0106 -0.0136
                ( 61.19%)  -0.7822* H   6 s(100.00%)
                                            1.0000  0.0023
    87. (0.00102) BD*( 1) C   7 - C   8  
                ( 50.00%)   0.7071* C   7 s( 13.70%)p 6.30( 86.24%)d 0.00(  0.06%)
                                            0.0000 -0.3698  0.0148  0.0046 -0.0002
                                            0.4614 -0.0274 -0.0020 -0.4019 -0.0211
                                            0.0069 -0.6967 -0.0358  0.0106  0.0101
                                            0.0177  0.0007 -0.0104  0.0063
                ( 50.00%)  -0.7071* C   8 s( 13.70%)p 6.30( 86.24%)d 0.00(  0.06%)
                                            0.0000 -0.3698  0.0148  0.0046 -0.0002
                                           -0.4614  0.0274  0.0020 -0.4019 -0.0211
                                            0.0069 -0.6967 -0.0358  0.0106 -0.0101
                                           -0.0177  0.0007 -0.0104  0.0063
    88. (0.00189) BD*( 2) C   7 - C   8  
                ( 50.00%)   0.7071* C   7 s( 25.42%)p 2.93( 74.53%)d 0.00(  0.05%)
                                            0.0000 -0.5037  0.0232  0.0015  0.0003
                                            0.6271 -0.0382 -0.0014  0.2956  0.0156
                                           -0.0051  0.5121  0.0261 -0.0070 -0.0074
                                           -0.0129  0.0009 -0.0139  0.0089
                ( 50.00%)  -0.7071* C   8 s( 25.42%)p 2.93( 74.53%)d 0.00(  0.05%)
                                            0.0000 -0.5037  0.0232  0.0015  0.0003
                                           -0.6271  0.0382  0.0014  0.2956  0.0156
                                           -0.0051  0.5121  0.0261 -0.0070  0.0074
                                            0.0129  0.0009 -0.0139  0.0089
    89. (0.00960) BD*( 1) C   7 - H   9  
                ( 38.82%)   0.6231* C   7 s( 30.48%)p 2.28( 69.46%)d 0.00(  0.06%)
                                            0.0002 -0.5519 -0.0122 -0.0020  0.0000
                                           -0.4415  0.0148  0.0008 -0.6122 -0.0034
                                           -0.0091  0.3529  0.0011  0.0065 -0.0156
                                            0.0089  0.0147  0.0064  0.0063
                ( 61.18%)  -0.7821* H   9 s(100.00%)
                                           -1.0000 -0.0023
    90. (0.00960) BD*( 1) C   7 - H  10  
                ( 38.87%)   0.6235* C   7 s( 30.44%)p 2.28( 69.50%)d 0.00(  0.06%)
                                            0.0002 -0.5516 -0.0123 -0.0017 -0.0001
                                           -0.4414  0.0151  0.0011  0.6122  0.0032
                                            0.0090 -0.3536 -0.0021 -0.0044  0.0156
                                           -0.0090  0.0148  0.0063  0.0062
                ( 61.13%)  -0.7818* H  10 s(100.00%)
                                           -1.0000 -0.0023
    91. (0.00960) BD*( 1) C   8 - H  11  
                ( 38.82%)   0.6231* C   8 s( 30.48%)p 2.28( 69.46%)d 0.00(  0.06%)
                                           -0.0002  0.5519  0.0122  0.0020  0.0000
                                           -0.4415  0.0148  0.0008  0.6122  0.0034
                                            0.0091 -0.3529 -0.0011 -0.0065 -0.0156
                                            0.0089 -0.0147 -0.0064 -0.0063
                ( 61.18%)  -0.7821* H  11 s(100.00%)
                                            1.0000  0.0023
    92. (0.00960) BD*( 1) C   8 - H  12  
                ( 38.87%)   0.6235* C   8 s( 30.44%)p 2.28( 69.50%)d 0.00(  0.06%)
                                           -0.0002  0.5516  0.0123  0.0017  0.0001
                                           -0.4414  0.0151  0.0011 -0.6122 -0.0032
                                           -0.0090  0.3536  0.0021  0.0044  0.0156
                                           -0.0090 -0.0148 -0.0063 -0.0062
                ( 61.13%)  -0.7818* H  12 s(100.00%)
                                            1.0000  0.0023


 NHO Directionality and "Bond Bending" (deviations from line of nuclear centers)

         [Thresholds for printing:  angular deviation  >  1.0 degree]
                                    hybrid p-character > 25.0%
                                    orbital occupancy  >  0.10e

                                Line of Centers        Hybrid 1              Hybrid 2
                                ---------------  -------------------   ------------------
                NBO               Theta   Phi    Theta   Phi    Dev    Theta   Phi    Dev
 ========================================================================================
     1. BD (   1) C   1 - C   2    90.0  180.0   125.5  180.0  35.5    125.5    0.0  35.5
     2. BD (   2) C   1 - C   2    90.0  180.0    19.5  180.0  70.5     19.5    0.0  70.5
     7. BD (   1) C   7 - C   8    90.0  180.0    39.7  136.1  62.6     39.7   43.9  62.6
     8. BD (   2) C   7 - C   8    90.0  180.0   128.7  207.5  46.2    128.7  332.5  46.2


 Second Order Perturbation Theory Analysis of Fock Matrix in NBO Basis

     Threshold for printing:   0.50 kcal/mol
    (Intermolecular threshold: 0.05 kcal/mol)
                                                                              E(2)  E(j)-E(i) F(i,j)
         Donor NBO (i)                     Acceptor NBO (j)                 kcal/mol   a.u.    a.u. 
 ===================================================================================================

 within unit  1
   1. BD (   1) C   1 - C   2        / 83. BD*(   1) C   1 - H   3            0.59    1.11    0.023
   1. BD (   1) C   1 - C   2        / 84. BD*(   1) C   1 - H   4            0.59    1.11    0.023
   1. BD (   1) C   1 - C   2        / 85. BD*(   1) C   2 - H   5            0.59    1.11    0.023
   1. BD (   1) C   1 - C   2        / 86. BD*(   1) C   2 - H   6            0.59    1.11    0.023
   3. BD (   1) C   1 - H   3        / 31. RY*(   1) C   2                    1.42    1.56    0.042
   3. BD (   1) C   1 - H   3        / 32. RY*(   2) C   2                    0.65    1.09    0.024
   3. BD (   1) C   1 - H   3        / 81. BD*(   1) C   1 - C   2            0.64    1.04    0.023
   3. BD (   1) C   1 - H   3        / 86. BD*(   1) C   2 - H   6            4.31    0.99    0.058
   4. BD (   1) C   1 - H   4        / 31. RY*(   1) C   2                    1.42    1.56    0.042
   4. BD (   1) C   1 - H   4        / 32. RY*(   2) C   2                    0.65    1.08    0.024
   4. BD (   1) C   1 - H   4        / 81. BD*(   1) C   1 - C   2            0.65    1.04    0.023
   4. BD (   1) C   1 - H   4        / 85. BD*(   1) C   2 - H   5            4.32    0.99    0.058
   5. BD (   1) C   2 - H   5        / 17. RY*(   1) C   1                    1.42    1.56    0.042
   5. BD (   1) C   2 - H   5        / 18. RY*(   2) C   1                    0.65    1.09    0.024
   5. BD (   1) C   2 - H   5        / 81. BD*(   1) C   1 - C   2            0.64    1.04    0.023
   5. BD (   1) C   2 - H   5        / 84. BD*(   1) C   1 - H   4            4.31    0.99    0.058
   6. BD (   1) C   2 - H   6        / 17. RY*(   1) C   1                    1.42    1.56    0.042
   6. BD (   1) C   2 - H   6        / 18. RY*(   2) C   1                    0.65    1.08    0.024
   6. BD (   1) C   2 - H   6        / 81. BD*(   1) C   1 - C   2            0.65    1.04    0.023
   6. BD (   1) C   2 - H   6        / 83. BD*(   1) C   1 - H   3            4.32    0.99    0.058
  13. CR (   1) C   1                / 32. RY*(   2) C   2                    2.77   10.63    0.153
  13. CR (   1) C   1                / 81. BD*(   1) C   1 - C   2            0.58   10.58    0.070
  13. CR (   1) C   1                / 85. BD*(   1) C   2 - H   5            0.67   10.53    0.075
  13. CR (   1) C   1                / 86. BD*(   1) C   2 - H   6            0.67   10.53    0.075
  14. CR (   1) C   2                / 18. RY*(   2) C   1                    2.77   10.63    0.153
  14. CR (   1) C   2                / 81. BD*(   1) C   1 - C   2            0.58   10.58    0.070
  14. CR (   1) C   2                / 83. BD*(   1) C   1 - H   3            0.67   10.53    0.075
  14. CR (   1) C   2                / 84. BD*(   1) C   1 - H   4            0.67   10.53    0.075

 from unit  1 to unit  2
       None above threshold

 from unit  2 to unit  1
       None above threshold

 within unit  2
   8. BD (   2) C   7 - C   8        / 89. BD*(   1) C   7 - H   9            0.52    1.04    0.021
   8. BD (   2) C   7 - C   8        / 90. BD*(   1) C   7 - H  10            0.51    1.04    0.021
   8. BD (   2) C   7 - C   8        / 91. BD*(   1) C   8 - H  11            0.52    1.04    0.021
   8. BD (   2) C   7 - C   8        / 92. BD*(   1) C   8 - H  12            0.51    1.04    0.021
   9. BD (   1) C   7 - H   9        / 63. RY*(   1) C   8                    1.42    1.56    0.042
   9. BD (   1) C   7 - H   9        / 64. RY*(   2) C   8                    0.65    1.09    0.024
   9. BD (   1) C   7 - H   9        / 88. BD*(   2) C   7 - C   8            0.58    0.95    0.021
   9. BD (   1) C   7 - H   9        / 92. BD*(   1) C   8 - H  12            4.32    0.99    0.058
  10. BD (   1) C   7 - H  10        / 63. RY*(   1) C   8                    1.42    1.56    0.042
  10. BD (   1) C   7 - H  10        / 64. RY*(   2) C   8                    0.65    1.09    0.024
  10. BD (   1) C   7 - H  10        / 88. BD*(   2) C   7 - C   8            0.57    0.95    0.021
  10. BD (   1) C   7 - H  10        / 91. BD*(   1) C   8 - H  11            4.31    0.99    0.058
  11. BD (   1) C   8 - H  11        / 49. RY*(   1) C   7                    1.42    1.56    0.042
  11. BD (   1) C   8 - H  11        / 50. RY*(   2) C   7                    0.65    1.09    0.024
  11. BD (   1) C   8 - H  11        / 88. BD*(   2) C   7 - C   8            0.58    0.95    0.021
  11. BD (   1) C   8 - H  11        / 90. BD*(   1) C   7 - H  10            4.32    0.99    0.058
  12. BD (   1) C   8 - H  12        / 49. RY*(   1) C   7                    1.42    1.56    0.042
  12. BD (   1) C   8 - H  12        / 50. RY*(   2) C   7                    0.65    1.09    0.024
  12. BD (   1) C   8 - H  12        / 88. BD*(   2) C   7 - C   8            0.57    0.95    0.021
  12. BD (   1) C   8 - H  12        / 89. BD*(   1) C   7 - H   9            4.31    0.99    0.058
  15. CR (   1) C   7                / 64. RY*(   2) C   8                    2.76   10.63    0.153
  15. CR (   1) C   7                / 91. BD*(   1) C   8 - H  11            0.67   10.53    0.075
  15. CR (   1) C   7                / 92. BD*(   1) C   8 - H  12            0.67   10.53    0.075
  16. CR (   1) C   8                / 50. RY*(   2) C   7                    2.76   10.63    0.153
  16. CR (   1) C   8                / 89. BD*(   1) C   7 - H   9            0.67   10.53    0.075
  16. CR (   1) C   8                / 90. BD*(   1) C   7 - H  10            0.67   10.53    0.075


 Natural Bond Orbitals (Summary):

                                                            Principal Delocalizations
           NBO                        Occupancy    Energy   (geminal,vicinal,remote)
 ====================================================================================
 Molecular unit  1  (C2H4)
     1. BD (   1) C   1 - C   2          1.99806    -0.64495  83(g),85(g),84(g),86(g)
     2. BD (   2) C   1 - C   2          1.99927    -0.36792   
     3. BD (   1) C   1 - H   3          1.98707    -0.52252  86(v),31(v),32(v),81(g)
     4. BD (   1) C   1 - H   4          1.98702    -0.52210  85(v),31(v),32(v),81(g)
     5. BD (   1) C   2 - H   5          1.98707    -0.52252  84(v),17(v),18(v),81(g)
     6. BD (   1) C   2 - H   6          1.98702    -0.52210  83(v),17(v),18(v),81(g)
    13. CR (   1) C   1                  1.99927   -10.06440  32(v),85(v),86(v),81(g)
    14. CR (   1) C   2                  1.99927   -10.06440  18(v),83(v),84(v),81(g)
    17. RY*(   1) C   1                  0.00371     1.03818   
    18. RY*(   2) C   1                  0.00158     0.56279   
    19. RY*(   3) C   1                  0.00017     0.36217   
    20. RY*(   4) C   1                  0.00007     0.56857   
    21. RY*(   5) C   1                  0.00000     0.25446   
    22. RY*(   6) C   1                  0.00000     3.93208   
    23. RY*(   7) C   1                  0.00000     0.32161   
    24. RY*(   8) C   1                  0.00000     0.74544   
    25. RY*(   9) C   1                  0.00001     0.68224   
    26. RY*(  10) C   1                  0.00000     2.07215   
    27. RY*(  11) C   1                  0.00000     1.90002   
    28. RY*(  12) C   1                  0.00000     1.67922   
    29. RY*(  13) C   1                  0.00000     2.23446   
    30. RY*(  14) C   1                  0.00001     2.04726   
    31. RY*(   1) C   2                  0.00371     1.03818   
    32. RY*(   2) C   2                  0.00158     0.56279   
    33. RY*(   3) C   2                  0.00017     0.36217   
    34. RY*(   4) C   2                  0.00007     0.56857   
    35. RY*(   5) C   2                  0.00000     0.25446   
    36. RY*(   6) C   2                  0.00000     3.93208   
    37. RY*(   7) C   2                  0.00000     0.32161   
    38. RY*(   8) C   2                  0.00000     0.74544   
    39. RY*(   9) C   2                  0.00001     0.68224   
    40. RY*(  10) C   2                  0.00000     2.07215   
    41. RY*(  11) C   2                  0.00000     1.90002   
    42. RY*(  12) C   2                  0.00000     1.67922   
    43. RY*(  13) C   2                  0.00000     2.23446   
    44. RY*(  14) C   2                  0.00001     2.04726   
    45. RY*(   1) H   3                  0.00089     0.61444   
    46. RY*(   1) H   4                  0.00088     0.61499   
    47. RY*(   1) H   5                  0.00089     0.61444   
    48. RY*(   1) H   6                  0.00088     0.61499   
    81. BD*(   1) C   1 - C   2          0.00232     0.51362   
    82. BD*(   2) C   1 - C   2          0.00060     0.15280   
    83. BD*(   1) C   1 - H   3          0.00961     0.46511   
    84. BD*(   1) C   1 - H   4          0.00958     0.46607   
    85. BD*(   1) C   2 - H   5          0.00961     0.46511   
    86. BD*(   1) C   2 - H   6          0.00958     0.46607   
       -------------------------------
              Total Lewis   15.94405  ( 99.6506%)
        Valence non-Lewis    0.04129  (  0.2581%)
        Rydberg non-Lewis    0.01461  (  0.0913%)
       -------------------------------
            Total unit  1   15.99996  (100.0000%)
           Charge unit  1    0.00004

 Molecular unit  2  (C2H4)
     7. BD (   1) C   7 - C   8          1.99907    -0.43635   
     8. BD (   2) C   7 - C   8          1.99832    -0.57449  89(g),91(g),90(g),92(g)
     9. BD (   1) C   7 - H   9          1.98701    -0.52114  92(v),63(v),64(v),88(g)
    10. BD (   1) C   7 - H  10          1.98706    -0.52149  91(v),63(v),64(v),88(g)
    11. BD (   1) C   8 - H  11          1.98701    -0.52114  90(v),49(v),50(v),88(g)
    12. BD (   1) C   8 - H  12          1.98706    -0.52149  89(v),49(v),50(v),88(g)
    15. CR (   1) C   7                  1.99926   -10.06346  64(v),92(v),91(v)
    16. CR (   1) C   8                  1.99926   -10.06346  50(v),90(v),89(v)
    49. RY*(   1) C   7                  0.00371     1.03938   
    50. RY*(   2) C   7                  0.00158     0.56438   
    51. RY*(   3) C   7                  0.00015     0.44533   
    52. RY*(   4) C   7                  0.00007     0.47646   
    53. RY*(   5) C   7                  0.00000     0.27039   
    54. RY*(   6) C   7                  0.00000     3.92701   
    55. RY*(   7) C   7                  0.00000     0.30258   
    56. RY*(   8) C   7                  0.00000     0.78620   
    57. RY*(   9) C   7                  0.00000     0.66320   
    58. RY*(  10) C   7                  0.00000     2.02173   
    59. RY*(  11) C   7                  0.00000     1.94245   
    60. RY*(  12) C   7                  0.00000     1.94199   
    61. RY*(  13) C   7                  0.00000     2.16611   
    62. RY*(  14) C   7                  0.00000     1.86177   
    63. RY*(   1) C   8                  0.00371     1.03938   
    64. RY*(   2) C   8                  0.00158     0.56438   
    65. RY*(   3) C   8                  0.00015     0.44533   
    66. RY*(   4) C   8                  0.00007     0.47646   
    67. RY*(   5) C   8                  0.00000     0.27039   
    68. RY*(   6) C   8                  0.00000     3.92701   
    69. RY*(   7) C   8                  0.00000     0.30258   
    70. RY*(   8) C   8                  0.00000     0.78620   
    71. RY*(   9) C   8                  0.00000     0.66320   
    72. RY*(  10) C   8                  0.00000     2.02173   
    73. RY*(  11) C   8                  0.00000     1.94245   
    74. RY*(  12) C   8                  0.00000     1.94199   
    75. RY*(  13) C   8                  0.00000     2.16611   
    76. RY*(  14) C   8                  0.00000     1.86177   
    77. RY*(   1) H   9                  0.00092     0.61569   
    78. RY*(   1) H  10                  0.00089     0.61519   
    79. RY*(   1) H  11                  0.00092     0.61569   
    80. RY*(   1) H  12                  0.00089     0.61519   
    87. BD*(   1) C   7 - C   8          0.00102     0.24381   
    88. BD*(   2) C   7 - C   8          0.00189     0.42454   
    89. BD*(   1) C   7 - H   9          0.00960     0.46720   
    90. BD*(   1) C   7 - H  10          0.00960     0.46627   
    91. BD*(   1) C   8 - H  11          0.00960     0.46720   
    92. BD*(   1) C   8 - H  12          0.00960     0.46627   
       -------------------------------
              Total Lewis   15.94406  ( 99.6501%)
        Valence non-Lewis    0.04131  (  0.2582%)
        Rydberg non-Lewis    0.01467  (  0.0917%)
       -------------------------------
            Total unit  2   16.00004  (100.0000%)
           Charge unit  2   -0.00004
 1\1\GINC-RSWPRH01\SP\RB3LYP\6-31+G(d)\C4H8\ROOT\18-Sep-2016\0\\# B3LYP
 /6-31+G* int=ultrafine nosymm pop=nboread\\A_B_30\\0,1\C,0,0.672749,0.
 ,0.\C,0,-0.672749,0.,0.\H,0,1.242623,0.934806,0.\H,0,1.242623,-0.93480
 6,0.\H,0,-1.242623,0.934806,0.\H,0,-1.242623,-0.934806,0.\C,0,0.672749
 ,0.,5.\C,0,-0.672749,0.,5.\H,0,1.242623,0.809566,4.532597\H,0,1.242623
 ,-0.809566,5.467403\H,0,-1.242623,0.809566,4.532597\H,0,-1.242623,-0.8
 09566,5.467403\\Version=ES64L-G09RevD.01\HF=-157.1856683\RMSD=3.834e-0
 9\Dipole=0.,-0.0055671,-0.0028844\Quadrupole=1.9157385,1.2744914,-3.19
 02299,0.,0.,-1.1885604\PG=CS [X(C4H8)]\\@


 SOME PEOPLE TRY TO PULL THE WOOL OVER YOUR EYES
 USING THE WRONG YARN.
 Job cpu time:       0 days  0 hours  0 minutes 59.0 seconds.
 File lengths (MBytes):  RWF=      5 Int=      0 D2E=      0 Chk=      1 Scr=      1
 Normal termination of Gaussian 09 at Sun Sep 18 08:50:56 2016.
