A_B_30                                                                  
SP        RB3LYP                                                      6-31+G(d)           
Number of atoms                            I               12
Info1-9                                    I   N=           9
          23          23           0           0           0         110
           1          18        -502
Charge                                     I                0
Multiplicity                               I                1
Number of electrons                        I               32
Number of alpha electrons                  I               16
Number of beta electrons                   I               16
Number of basis functions                  I               92
Number of independent functions            I               92
Number of point charges in /Mol/           I                0
Number of translation vectors              I                0
Atomic numbers                             I   N=          12
           6           6           1           1           1           1
           6           6           1           1           1           1
Nuclear charges                            R   N=          12
  6.00000000E+00  6.00000000E+00  1.00000000E+00  1.00000000E+00  1.00000000E+00
  1.00000000E+00  6.00000000E+00  6.00000000E+00  1.00000000E+00  1.00000000E+00
  1.00000000E+00  1.00000000E+00
Current cartesian coordinates              R   N=          36
  1.27131137E+00  0.00000000E+00  0.00000000E+00 -1.27131137E+00  0.00000000E+00
  0.00000000E+00  2.34821716E+00  1.76652733E+00  0.00000000E+00  2.34821716E+00
 -1.76652733E+00  0.00000000E+00 -2.34821716E+00  1.76652733E+00  0.00000000E+00
 -2.34821716E+00 -1.76652733E+00  0.00000000E+00  1.27131137E+00  0.00000000E+00
  9.44863066E+00 -1.27131137E+00  0.00000000E+00  9.44863066E+00  2.34821716E+00
  1.52985803E+00  8.56536700E+00  2.34821716E+00 -1.52985803E+00  1.03318943E+01
 -2.34821716E+00  1.52985803E+00  8.56536700E+00 -2.34821716E+00 -1.52985803E+00
  1.03318943E+01
Force Field                                I                0
Int Atom Types                             I   N=          12
           0           0           0           0           0           0
           0           0           0           0           0           0
MM charges                                 R   N=          12
  0.00000000E+00  0.00000000E+00  0.00000000E+00  0.00000000E+00  0.00000000E+00
  0.00000000E+00  0.00000000E+00  0.00000000E+00  0.00000000E+00  0.00000000E+00
  0.00000000E+00  0.00000000E+00
Integer atomic weights                     I   N=          12
          12          12           1           1           1           1
          12          12           1           1           1           1
Real atomic weights                        R   N=          12
  1.20000000E+01  1.20000000E+01  1.00782504E+00  1.00782504E+00  1.00782504E+00
  1.00782504E+00  1.20000000E+01  1.20000000E+01  1.00782504E+00  1.00782504E+00
  1.00782504E+00  1.00782504E+00
Atom fragment info                         I   N=          12
           0           0           0           0           0           0
           0           0           0           0           0           0
Atom residue num                           I   N=          12
           0           0           0           0           0           0
           0           0           0           0           0           0
Nuclear spins                              I   N=          12
           0           0           1           1           1           1
           0           0           1           1           1           1
Nuclear ZEff                               R   N=          12
 -3.60000000E+00 -3.60000000E+00 -1.00000000E+00 -1.00000000E+00 -1.00000000E+00
 -1.00000000E+00 -3.60000000E+00 -3.60000000E+00 -1.00000000E+00 -1.00000000E+00
 -1.00000000E+00 -1.00000000E+00
Nuclear ZNuc                               R   N=          12
  6.00000000E+00  6.00000000E+00  1.00000000E+00  1.00000000E+00  1.00000000E+00
  1.00000000E+00  6.00000000E+00  6.00000000E+00  1.00000000E+00  1.00000000E+00
  1.00000000E+00  1.00000000E+00
Nuclear QMom                               R   N=          12
  0.00000000E+00  0.00000000E+00  0.00000000E+00  0.00000000E+00  0.00000000E+00
  0.00000000E+00  0.00000000E+00  0.00000000E+00  0.00000000E+00  0.00000000E+00
  0.00000000E+00  0.00000000E+00
Nuclear GFac                               R   N=          12
  0.00000000E+00  0.00000000E+00  2.79284600E+00  2.79284600E+00  2.79284600E+00
  2.79284600E+00  0.00000000E+00  0.00000000E+00  2.79284600E+00  2.79284600E+00
  2.79284600E+00  2.79284600E+00
MicOpt                                     I   N=          12
          -1          -1          -1          -1          -1          -1
          -1          -1          -1          -1          -1          -1
Number of contracted shells                I               36
Number of primitive shells                 I               80
Pure/Cartesian d shells                    I                1
Pure/Cartesian f shells                    I                0
Highest angular momentum                   I                2
Largest degree of contraction              I                6
Shell types                                I   N=          36
           0          -1          -1          -1           2           0
          -1          -1          -1           2           0           0
           0           0           0           0           0           0
           0          -1          -1          -1           2           0
          -1          -1          -1           2           0           0
           0           0           0           0           0           0
Number of primitives per shell             I   N=          36
           6           3           1           1           1           6
           3           1           1           1           3           1
           3           1           3           1           3           1
           6           3           1           1           1           6
           3           1           1           1           3           1
           3           1           3           1           3           1
Shell to atom map                          I   N=          36
           1           1           1           1           1           2
           2           2           2           2           3           3
           4           4           5           5           6           6
           7           7           7           7           7           8
           8           8           8           8           9           9
          10          10          11          11          12          12
Primitive exponents                        R   N=          80
  3.04752488E+03  4.57369518E+02  1.03948685E+02  2.92101553E+01  9.28666296E+00
  3.16392696E+00  7.86827235E+00  1.88128854E+00  5.44249258E-01  1.68714478E-01
  4.38000000E-02  8.00000000E-01  3.04752488E+03  4.57369518E+02  1.03948685E+02
  2.92101553E+01  9.28666296E+00  3.16392696E+00  7.86827235E+00  1.88128854E+00
  5.44249258E-01  1.68714478E-01  4.38000000E-02  8.00000000E-01  1.87311370E+01
  2.82539436E+00  6.40121692E-01  1.61277759E-01  1.87311370E+01  2.82539436E+00
  6.40121692E-01  1.61277759E-01  1.87311370E+01  2.82539436E+00  6.40121692E-01
  1.61277759E-01  1.87311370E+01  2.82539436E+00  6.40121692E-01  1.61277759E-01
  3.04752488E+03  4.57369518E+02  1.03948685E+02  2.92101553E+01  9.28666296E+00
  3.16392696E+00  7.86827235E+00  1.88128854E+00  5.44249258E-01  1.68714478E-01
  4.38000000E-02  8.00000000E-01  3.04752488E+03  4.57369518E+02  1.03948685E+02
  2.92101553E+01  9.28666296E+00  3.16392696E+00  7.86827235E+00  1.88128854E+00
  5.44249258E-01  1.68714478E-01  4.38000000E-02  8.00000000E-01  1.87311370E+01
  2.82539436E+00  6.40121692E-01  1.61277759E-01  1.87311370E+01  2.82539436E+00
  6.40121692E-01  1.61277759E-01  1.87311370E+01  2.82539436E+00  6.40121692E-01
  1.61277759E-01  1.87311370E+01  2.82539436E+00  6.40121692E-01  1.61277759E-01
Contraction coefficients                   R   N=          80
  1.83473713E-03  1.40373228E-02  6.88426223E-02  2.32184443E-01  4.67941348E-01
  3.62311985E-01 -1.19332420E-01 -1.60854152E-01  1.14345644E+00  1.00000000E+00
  1.00000000E+00  1.00000000E+00  1.83473713E-03  1.40373228E-02  6.88426223E-02
  2.32184443E-01  4.67941348E-01  3.62311985E-01 -1.19332420E-01 -1.60854152E-01
  1.14345644E+00  1.00000000E+00  1.00000000E+00  1.00000000E+00  3.34946043E-02
  2.34726953E-01  8.13757326E-01  1.00000000E+00  3.34946043E-02  2.34726953E-01
  8.13757326E-01  1.00000000E+00  3.34946043E-02  2.34726953E-01  8.13757326E-01
  1.00000000E+00  3.34946043E-02  2.34726953E-01  8.13757326E-01  1.00000000E+00
  1.83473713E-03  1.40373228E-02  6.88426223E-02  2.32184443E-01  4.67941348E-01
  3.62311985E-01 -1.19332420E-01 -1.60854152E-01  1.14345644E+00  1.00000000E+00
  1.00000000E+00  1.00000000E+00  1.83473713E-03  1.40373228E-02  6.88426223E-02
  2.32184443E-01  4.67941348E-01  3.62311985E-01 -1.19332420E-01 -1.60854152E-01
  1.14345644E+00  1.00000000E+00  1.00000000E+00  1.00000000E+00  3.34946043E-02
  2.34726953E-01  8.13757326E-01  1.00000000E+00  3.34946043E-02  2.34726953E-01
  8.13757326E-01  1.00000000E+00  3.34946043E-02  2.34726953E-01  8.13757326E-01
  1.00000000E+00  3.34946043E-02  2.34726953E-01  8.13757326E-01  1.00000000E+00
P(S=P) Contraction coefficients            R   N=          80
  0.00000000E+00  0.00000000E+00  0.00000000E+00  0.00000000E+00  0.00000000E+00
  0.00000000E+00  6.89990666E-02  3.16423961E-01  7.44308291E-01  1.00000000E+00
  1.00000000E+00  0.00000000E+00  0.00000000E+00  0.00000000E+00  0.00000000E+00
  0.00000000E+00  0.00000000E+00  0.00000000E+00  6.89990666E-02  3.16423961E-01
  7.44308291E-01  1.00000000E+00  1.00000000E+00  0.00000000E+00  0.00000000E+00
  0.00000000E+00  0.00000000E+00  0.00000000E+00  0.00000000E+00  0.00000000E+00
  0.00000000E+00  0.00000000E+00  0.00000000E+00  0.00000000E+00  0.00000000E+00
  0.00000000E+00  0.00000000E+00  0.00000000E+00  0.00000000E+00  0.00000000E+00
  0.00000000E+00  0.00000000E+00  0.00000000E+00  0.00000000E+00  0.00000000E+00
  0.00000000E+00  6.89990666E-02  3.16423961E-01  7.44308291E-01  1.00000000E+00
  1.00000000E+00  0.00000000E+00  0.00000000E+00  0.00000000E+00  0.00000000E+00
  0.00000000E+00  0.00000000E+00  0.00000000E+00  6.89990666E-02  3.16423961E-01
  7.44308291E-01  1.00000000E+00  1.00000000E+00  0.00000000E+00  0.00000000E+00
  0.00000000E+00  0.00000000E+00  0.00000000E+00  0.00000000E+00  0.00000000E+00
  0.00000000E+00  0.00000000E+00  0.00000000E+00  0.00000000E+00  0.00000000E+00
  0.00000000E+00  0.00000000E+00  0.00000000E+00  0.00000000E+00  0.00000000E+00
Coordinates of each shell                  R   N=         108
  1.27131137E+00  0.00000000E+00  0.00000000E+00  1.27131137E+00  0.00000000E+00
  0.00000000E+00  1.27131137E+00  0.00000000E+00  0.00000000E+00  1.27131137E+00
  0.00000000E+00  0.00000000E+00  1.27131137E+00  0.00000000E+00  0.00000000E+00
 -1.27131137E+00  0.00000000E+00  0.00000000E+00 -1.27131137E+00  0.00000000E+00
  0.00000000E+00 -1.27131137E+00  0.00000000E+00  0.00000000E+00 -1.27131137E+00
  0.00000000E+00  0.00000000E+00 -1.27131137E+00  0.00000000E+00  0.00000000E+00
  2.34821716E+00  1.76652733E+00  0.00000000E+00  2.34821716E+00  1.76652733E+00
  0.00000000E+00  2.34821716E+00 -1.76652733E+00  0.00000000E+00  2.34821716E+00
 -1.76652733E+00  0.00000000E+00 -2.34821716E+00  1.76652733E+00  0.00000000E+00
 -2.34821716E+00  1.76652733E+00  0.00000000E+00 -2.34821716E+00 -1.76652733E+00
  0.00000000E+00 -2.34821716E+00 -1.76652733E+00  0.00000000E+00  1.27131137E+00
  0.00000000E+00  9.44863066E+00  1.27131137E+00  0.00000000E+00  9.44863066E+00
  1.27131137E+00  0.00000000E+00  9.44863066E+00  1.27131137E+00  0.00000000E+00
  9.44863066E+00  1.27131137E+00  0.00000000E+00  9.44863066E+00 -1.27131137E+00
  0.00000000E+00  9.44863066E+00 -1.27131137E+00  0.00000000E+00  9.44863066E+00
 -1.27131137E+00  0.00000000E+00  9.44863066E+00 -1.27131137E+00  0.00000000E+00
  9.44863066E+00 -1.27131137E+00  0.00000000E+00  9.44863066E+00  2.34821716E+00
  1.52985803E+00  8.56536700E+00  2.34821716E+00  1.52985803E+00  8.56536700E+00
  2.34821716E+00 -1.52985803E+00  1.03318943E+01  2.34821716E+00 -1.52985803E+00
  1.03318943E+01 -2.34821716E+00  1.52985803E+00  8.56536700E+00 -2.34821716E+00
  1.52985803E+00  8.56536700E+00 -2.34821716E+00 -1.52985803E+00  1.03318943E+01
 -2.34821716E+00 -1.52985803E+00  1.03318943E+01
Constraint Structure                       R   N=          36
  1.27131137E+00  0.00000000E+00  0.00000000E+00 -1.27131137E+00  0.00000000E+00
  0.00000000E+00  2.34821716E+00  1.76652733E+00  0.00000000E+00  2.34821716E+00
 -1.76652733E+00  0.00000000E+00 -2.34821716E+00  1.76652733E+00  0.00000000E+00
 -2.34821716E+00 -1.76652733E+00  0.00000000E+00  1.27131137E+00  0.00000000E+00
  9.44863066E+00 -1.27131137E+00  0.00000000E+00  9.44863066E+00  2.34821716E+00
  1.52985803E+00  8.56536700E+00  2.34821716E+00 -1.52985803E+00  1.03318943E+01
 -2.34821716E+00  1.52985803E+00  8.56536700E+00 -2.34821716E+00 -1.52985803E+00
  1.03318943E+01
Num ILSW                                   I              100
ILSW                                       I   N=         100
           0           1           0           0           2           0
           0           0           0           0         402          -1
           5           0           0           0           0           0
           0           0           1           0           0           0
           1           1           0           0           0           0
           0           0      100000           0          -1           0
           0           0           0           0           0           0
           0           0           0           1           0           0
           0           0           1           0           0           0
           0           0           4          41           0           0
           0           0           5           0           0           0
           0           0           0           0           0           0
           0           0           0           0           0           0
           0           0           0           0           0           0
           0           0           0           0           0           0
           0           0           0           0           0           0
           0           0           0           0
Num RLSW                                   I               41
RLSW                                       R   N=          41
  8.00000000E-01  7.20000000E-01  1.00000000E+00  8.10000000E-01  2.00000000E-01
  0.00000000E+00  0.00000000E+00  1.00000000E+00  0.00000000E+00  0.00000000E+00
  0.00000000E+00  0.00000000E+00  1.00000000E+00  0.00000000E+00  0.00000000E+00
  0.00000000E+00  0.00000000E+00  1.00000000E+00  0.00000000E+00  0.00000000E+00
  0.00000000E+00  0.00000000E+00  1.00000000E+00  0.00000000E+00  0.00000000E+00
  0.00000000E+00  0.00000000E+00  1.00000000E+00  0.00000000E+00  0.00000000E+00
  0.00000000E+00  0.00000000E+00  1.00000000E+00  0.00000000E+00  0.00000000E+00
  0.00000000E+00  0.00000000E+00  0.00000000E+00  1.00000000E+00  1.00000000E+00
  0.00000000E+00
MxBond                                     I                3
NBond                                      I   N=          12
           3           3           1           1           1           1
           3           3           1           1           1           1
IBond                                      I   N=          36
           2           3           4           1           5           6
           1           0           0           1           0           0
           2           0           0           2           0           0
           8           9          10           7          11          12
           7           0           0           7           0           0
           8           0           0           8           0           0
RBond                                      R   N=          36
  2.00000000E+00  1.00000000E+00  1.00000000E+00  2.00000000E+00  1.00000000E+00
  1.00000000E+00  1.00000000E+00  0.00000000E+00  0.00000000E+00  1.00000000E+00
  0.00000000E+00  0.00000000E+00  1.00000000E+00  0.00000000E+00  0.00000000E+00
  1.00000000E+00  0.00000000E+00  0.00000000E+00  2.00000000E+00  1.00000000E+00
  1.00000000E+00  2.00000000E+00  1.00000000E+00  1.00000000E+00  1.00000000E+00
  0.00000000E+00  0.00000000E+00  1.00000000E+00  0.00000000E+00  0.00000000E+00
  1.00000000E+00  0.00000000E+00  0.00000000E+00  1.00000000E+00  0.00000000E+00
  0.00000000E+00
Virial Ratio                               R      2.011866716502925E+00
SCF Energy                                 R     -1.571856683071278E+02
Total Energy                               R     -1.571856683071278E+02
RMS Density                                R      3.834277729024558E-09
External E-field                           R   N=          35
  0.00000000E+00  0.00000000E+00  0.00000000E+00  0.00000000E+00  0.00000000E+00
  0.00000000E+00  0.00000000E+00  0.00000000E+00  0.00000000E+00  0.00000000E+00
  0.00000000E+00  0.00000000E+00  0.00000000E+00  0.00000000E+00  0.00000000E+00
  0.00000000E+00  0.00000000E+00  0.00000000E+00  0.00000000E+00  0.00000000E+00
  0.00000000E+00  0.00000000E+00  0.00000000E+00  0.00000000E+00  0.00000000E+00
  0.00000000E+00  0.00000000E+00  0.00000000E+00  0.00000000E+00  0.00000000E+00
  0.00000000E+00  0.00000000E+00  0.00000000E+00  0.00000000E+00  0.00000000E+00
IOpCl                                      I                0
IROHF                                      I                0
Alpha Orbital Energies                     R   N=          92
 -1.01971918E+01 -1.01963850E+01 -1.01962175E+01 -1.01954103E+01 -7.60575216E-01
 -7.59557608E-01 -5.83111093E-01 -5.82125195E-01 -4.71296692E-01 -4.70264807E-01
 -4.21295616E-01 -4.20310996E-01 -3.61887181E-01 -3.60879246E-01 -2.75710938E-01
 -2.71920347E-01 -1.26390247E-02 -3.33068928E-03  1.63546322E-02  2.53190090E-02
  3.50520086E-02  4.13781863E-02  4.51906724E-02  5.98991084E-02  7.55645413E-02
  8.08784422E-02  8.19434254E-02  9.57042213E-02  1.00545041E-01  1.19057619E-01
  1.32022191E-01  1.51295587E-01  1.56807278E-01  1.71413466E-01  1.75348713E-01
  1.91631415E-01  1.98339533E-01  2.42954777E-01  2.43238522E-01  2.88017860E-01
  3.44335410E-01  3.46932218E-01  3.49975537E-01  3.66261793E-01  5.77947546E-01
  5.88766158E-01  6.58722887E-01  6.64065952E-01  6.80257484E-01  7.06806999E-01
  7.26630385E-01  7.32000157E-01  7.60889673E-01  7.79759571E-01  8.37671082E-01
  8.65140428E-01  9.00764293E-01  9.10676469E-01  9.37098183E-01  9.44637454E-01
  9.68070244E-01  1.00666438E+00  1.00842218E+00  1.05532231E+00  1.16587220E+00
  1.17135903E+00  1.22116979E+00  1.22422029E+00  1.44958392E+00  1.45095673E+00
  1.54059648E+00  1.54365161E+00  1.81805282E+00  1.81951302E+00  1.88702209E+00
  1.88835124E+00  2.00156744E+00  2.00399693E+00  2.10980143E+00  2.11124823E+00
  2.29609125E+00  2.29845816E+00  2.37210387E+00  2.37379711E+00  2.66651403E+00
  2.66775108E+00  2.70088703E+00  2.70940411E+00  4.11884573E+00  4.12494774E+00
  4.25261442E+00  4.25596916E+00
Alpha MO coefficients                      R   N=        8464
  7.01851767E-01  3.45298646E-02  1.68407613E-04  2.76043779E-06  1.68143131E-05
 -6.26502866E-03 -2.33624738E-04 -2.26996227E-06 -5.76509147E-05  7.80881901E-04
 -8.15769912E-04 -2.75151956E-06  1.20475215E-04 -6.66053895E-03 -6.68082526E-03
 -6.89237421E-03  2.24606115E-07 -2.79607956E-06  9.70264995E-08  7.01851764E-01
  3.45298645E-02 -1.68407614E-04  2.76043778E-06  1.68143131E-05 -6.26502861E-03
  2.33624747E-04 -2.26996225E-06 -5.76509147E-05  7.80881827E-04  8.15769892E-04
 -2.75151954E-06  1.20475215E-04 -6.66053893E-03 -6.68082523E-03 -6.89237418E-03
 -2.24606116E-07  2.79607956E-06  9.70264994E-08 -1.83535081E-04  8.90449831E-04
 -1.81117299E-04  8.81575712E-04 -1.83535080E-04  8.90449827E-04 -1.81117299E-04
  8.81575707E-04 -1.65307841E-04 -2.45069954E-05  1.90533971E-06 -1.93856939E-07
 -8.02548389E-06  6.03812801E-05 -2.23403272E-05 -8.72285300E-06  1.20442093E-06
 -1.92897793E-04  9.61892688E-05 -3.18992567E-07  1.21022265E-04 -2.80435711E-06
  6.10666398E-07 -4.74349156E-06 -3.18502176E-06  4.84043043E-07  4.05189988E-06
 -1.65307841E-04 -2.45069954E-05 -1.90533971E-06 -1.93856902E-07 -8.02548387E-06
  6.03812802E-05  2.23403272E-05 -8.72285331E-06  1.20442090E-06 -1.92897790E-04
 -9.61892680E-05 -3.18992755E-07  1.21022265E-04 -2.80435712E-06  6.10666391E-07
 -4.74349157E-06  3.18502175E-06 -4.84043053E-07  4.05189988E-06 -1.69777446E-06
  8.40671798E-05 -1.53423549E-05  7.09360828E-05 -1.69777451E-06  8.40671802E-05
 -1.53423549E-05  7.09360826E-05  7.02152870E-01  3.51991474E-02 -3.25425426E-04
  3.27524370E-06 -7.06400864E-07 -1.29581622E-02  2.35094334E-03 -6.30593152E-06
 -4.65944119E-06  1.97647429E-02 -5.32670971E-03 -4.50897546E-06  1.07507126E-05
 -6.23847373E-03 -6.50633249E-03 -6.75407164E-03 -8.29872455E-08  4.94483969E-07
  9.11473700E-08 -7.02152873E-01 -3.51991475E-02 -3.25425426E-04 -3.27524371E-06
  7.06400799E-07  1.29581622E-02  2.35094334E-03  6.30593153E-06  4.65944141E-06
 -1.97647429E-02 -5.32670971E-03  4.50897547E-06 -1.07507131E-05  6.23847376E-03
  6.50633251E-03  6.75407167E-03 -8.29872440E-08  4.94483959E-07 -9.11473699E-08
 -1.01508460E-04  1.16375491E-03 -1.01208088E-04  1.15637123E-03  1.01508461E-04
 -1.16375491E-03  1.01208089E-04 -1.15637123E-03  8.27459551E-05  7.41700522E-06
  9.37762651E-08 -9.16365499E-06 -7.24766466E-06 -1.10065200E-05  1.83358773E-05
  7.89164321E-05  8.34907270E-06 -7.58141673E-04  2.11525331E-04  4.80435243E-05
 -5.50257329E-05  1.55675104E-06  1.73137507E-06  6.07681698E-07 -2.84812813E-06
 -2.69095432E-06  1.13916627E-06 -8.27459549E-05 -7.41700514E-06  9.37762732E-08
  9.16365499E-06  7.24766469E-06  1.10065197E-05  1.83358772E-05 -7.89164321E-05
 -8.34907271E-06  7.58141674E-04  2.11525331E-04 -4.80435243E-05  5.50257324E-05
 -1.55675102E-06 -1.73137507E-06 -6.07681676E-07 -2.84812815E-06 -2.69095432E-06
 -1.13916629E-06  1.47486002E-05 -9.55433838E-05  3.13709925E-07  5.21201923E-05
 -1.47486002E-05  9.55433835E-05 -3.13709867E-07 -5.21201926E-05  1.58588000E-04
 -1.10459633E-05  1.39908932E-05 -1.27286049E-06 -3.93777125E-06 -3.72988655E-05
 -9.88997996E-05 -6.35673634E-06  4.25309544E-05 -3.41620911E-04  1.30569700E-04
 -3.60022172E-05 -1.99713763E-04 -2.45008911E-06 -9.92427471E-06  1.72493029E-06
  5.31264194E-07  3.14357517E-06 -1.16874816E-07  1.58588000E-04 -1.10459633E-05
 -1.39908932E-05 -1.27286049E-06 -3.93777125E-06 -3.72988654E-05  9.88997996E-05
 -6.35673628E-06  4.25309544E-05 -3.41620908E-04 -1.30569699E-04 -3.60022171E-05
 -1.99713763E-04 -2.45008911E-06 -9.92427472E-06  1.72493028E-06 -5.31264192E-07
 -3.14357516E-06 -1.16874817E-07 -3.81830948E-05  2.80921192E-04 -2.02286604E-05
  1.99008918E-04 -3.81830948E-05  2.80921192E-04 -2.02286604E-05  1.99008918E-04
  7.01856564E-01  3.45454552E-02  1.69347939E-04 -1.03736475E-05 -1.81984520E-05
 -6.34774293E-03 -2.39349279E-04  4.83674397E-05  5.82824726E-05  8.62052395E-04
 -8.46565964E-04  2.73008217E-05 -2.04041021E-04 -6.65209785E-03 -6.72659320E-03
 -6.82775857E-03  1.67852997E-06  3.23656535E-06 -1.07190715E-04  7.01856563E-01
  3.45454552E-02 -1.69347939E-04 -1.03736475E-05 -1.81984520E-05 -6.34774292E-03
  2.39349281E-04  4.83674396E-05  5.82824726E-05  8.62052376E-04  8.46565959E-04
  2.73008217E-05 -2.04041021E-04 -6.65209784E-03 -6.72659319E-03 -6.82775856E-03
 -1.67852997E-06 -3.23656535E-06 -1.07190715E-04 -1.61217644E-04  7.83335937E-04
 -1.94916404E-04  9.69721784E-04 -1.61217644E-04  7.83335936E-04 -1.94916404E-04
  9.69721783E-04 -8.03926946E-05  2.90744533E-07  4.85837322E-07  5.62438684E-06
  5.71822678E-06 -8.50627681E-05  2.70389927E-05 -7.25549705E-05 -1.75092415E-05
 -3.00085859E-03  7.54511099E-04 -1.22321455E-04 -1.61186909E-04  5.45625892E-07
  3.39835726E-06  5.95885979E-06  7.18065964E-07  2.81972587E-06 -4.34821581E-08
  8.03926947E-05 -2.90744516E-07  4.85837333E-07 -5.62438684E-06 -5.71822678E-06
  8.50627681E-05  2.70389926E-05  7.25549705E-05  1.75092414E-05  3.00085859E-03
  7.54511099E-04  1.22321455E-04  1.61186909E-04 -5.45625890E-07 -3.39835725E-06
 -5.95885979E-06  7.18065964E-07  2.81972587E-06  4.34821583E-08 -1.09660092E-05
  1.52209446E-04 -3.70485231E-06  9.03409541E-06  1.09660092E-05 -1.52209447E-04
  3.70485233E-06 -9.03409557E-06  7.02153433E-01  3.51995417E-02 -3.23869216E-04
 -6.37017022E-06  2.14654996E-06 -1.29245416E-02  2.31916845E-03  5.78420828E-05
 -9.85873865E-06  2.09858661E-02 -5.61302403E-03  4.90482257E-05 -1.79583908E-04
 -6.23324294E-03 -6.56831847E-03 -6.69158661E-03 -7.11021241E-07 -7.93633605E-07
 -1.24016019E-04 -7.02153434E-01 -3.51995417E-02 -3.23869216E-04  6.37017023E-06
 -2.14654994E-06  1.29245416E-02  2.31916845E-03 -5.78420828E-05  9.85873861E-06
 -2.09858661E-02 -5.61302403E-03 -4.90482257E-05  1.79583909E-04  6.23324294E-03
  6.56831847E-03  6.69158662E-03 -7.11021240E-07 -7.93633602E-07  1.24016019E-04
 -9.32718924E-05  1.07088507E-03 -9.64775430E-05  1.17597937E-03  9.32718926E-05
 -1.07088507E-03  9.64775432E-05 -1.17597938E-03 -1.59063389E-01  3.10427995E-01
 -1.00452575E-01  2.03221248E-04 -1.22643704E-04  2.33029283E-01 -4.25423188E-03
  1.76354786E-04 -2.11751380E-04  3.58288687E-03 -9.11040081E-04  5.57233223E-05
  1.22332265E-04  8.10815464E-03  2.67580925E-04 -1.65247008E-02 -1.89994858E-06
  1.32369489E-05  2.06483314E-05 -1.59063389E-01  3.10427995E-01  1.00452575E-01
  2.03221248E-04 -1.22643704E-04  2.33029283E-01  4.25423188E-03  1.76354787E-04
 -2.11751380E-04  3.58288681E-03  9.11040065E-04  5.57233224E-05  1.22332264E-04
  8.10815464E-03  2.67580925E-04 -1.65247008E-02  1.89994858E-06 -1.32369488E-05
  2.06483314E-05  8.38730383E-02  1.50226915E-02  8.36656113E-02  1.49900763E-02
  8.38730383E-02  1.50226915E-02  8.36656113E-02  1.49900763E-02 -1.20452361E-02
  2.34007968E-02 -7.53840825E-03  3.52616568E-05  4.17865042E-05  1.76419856E-02
 -4.84805139E-04 -1.35804620E-04 -2.19206043E-04  2.25496789E-05  2.16776374E-04
 -6.81282570E-05  3.48751953E-04  5.97118837E-04 -3.25708926E-04 -9.55298505E-04
  1.58912944E-06 -7.83855419E-06 -6.31513803E-04 -1.20452361E-02  2.34007968E-02
  7.53840825E-03  3.52616568E-05  4.17865042E-05  1.76419856E-02  4.84805139E-04
 -1.35804620E-04 -2.19206043E-04  2.25496989E-05 -2.16776369E-04 -6.81282569E-05
  3.48751952E-04  5.97118837E-04 -3.25708926E-04 -9.55298505E-04 -1.58912944E-06
  7.83855419E-06 -6.31513803E-04  6.27946722E-03  1.67590288E-03  6.34709558E-03
  1.09009581E-03  6.27946722E-03  1.67590288E-03  6.34709558E-03  1.09009581E-03
  1.20970067E-02 -2.36232433E-02  7.65426400E-03  1.18275910E-06  5.42090772E-05
 -1.75429272E-02  5.00563971E-04  3.18997442E-05  1.17248447E-05  4.92260242E-04
  3.18032126E-05  3.06859438E-04  3.86964183E-04 -6.23606249E-04 -2.08756333E-05
  1.24330041E-03  6.13603638E-07 -3.87937730E-06 -1.19525160E-06  1.20970067E-02
 -2.36232433E-02 -7.65426400E-03  1.18275910E-06  5.42090772E-05 -1.75429272E-02
 -5.00563971E-04  3.18997442E-05  1.17248447E-05  4.92260244E-04 -3.18032122E-05
  3.06859438E-04  3.86964183E-04 -6.23606249E-04 -2.08756333E-05  1.24330041E-03
 -6.13603638E-07  3.87937730E-06 -1.19525160E-06 -6.28767706E-03 -1.99863764E-03
 -6.36146248E-03 -1.39554104E-03 -6.28767706E-03 -1.99863764E-03 -6.36146248E-03
 -1.39554104E-03 -1.59081409E-01  3.10389082E-01 -1.00432675E-01 -6.23421272E-05
  2.72542464E-04  2.33197380E-01 -4.32032523E-03 -1.08002479E-04  2.41385588E-04
  2.88009105E-03 -7.01289874E-04 -1.00244909E-04  4.42323070E-04  8.09807692E-03
 -3.92695242E-03 -1.23615713E-02 -1.04929290E-05 -1.60850560E-05 -8.37368785E-03
 -1.59081409E-01  3.10389082E-01  1.00432675E-01 -6.23421272E-05  2.72542464E-04
  2.33197380E-01  4.32032523E-03 -1.08002479E-04  2.41385588E-04  2.88009107E-03
  7.01289880E-04 -1.00244910E-04  4.42323070E-04  8.09807692E-03 -3.92695242E-03
 -1.23615713E-02  1.04929290E-05  1.60850560E-05 -8.37368785E-03  8.36367935E-02
  1.55103200E-02  8.38490550E-02  1.51824426E-02  8.36367935E-02  1.55103200E-02
  8.38490550E-02  1.51824426E-02 -1.23235362E-01  2.48384898E-01  1.69693121E-01
  2.68222065E-04 -8.04080130E-05  2.48577134E-01  6.23747535E-02  2.79239340E-04
 -3.55385456E-04 -3.15697987E-02  1.70468136E-02  2.10335914E-04  6.88519858E-04
 -8.37080085E-03  1.35786394E-02 -1.14844981E-02  3.08759323E-05 -7.15506711E-06
  1.81719454E-05  1.23235362E-01 -2.48384898E-01  1.69693121E-01 -2.68222065E-04
  8.04080130E-05 -2.48577134E-01  6.23747535E-02 -2.79239340E-04  3.55385456E-04
  3.15697987E-02  1.70468136E-02 -2.10335914E-04 -6.88519858E-04  8.37080085E-03
 -1.35786394E-02  1.14844981E-02  3.08759323E-05 -7.15506711E-06 -1.81719454E-05
  1.45253037E-01  5.85257211E-02  1.44837342E-01  5.81853499E-02 -1.45253037E-01
 -5.85257211E-02 -1.44837342E-01 -5.81853499E-02 -1.17110022E-02  2.35619901E-02
  1.61034427E-02  7.40067665E-05  5.08492855E-06  2.34827773E-02  5.89231892E-03
 -3.90753776E-04 -1.73619088E-04 -4.17334699E-03  1.50198978E-03 -2.81930186E-04
  1.50070158E-03 -8.09599042E-04  6.83877147E-04 -5.03168790E-04  1.24757435E-05
  6.72282325E-06 -1.18862882E-03  1.17110022E-02 -2.35619901E-02  1.61034427E-02
 -7.40067665E-05 -5.08492856E-06 -2.34827773E-02  5.89231892E-03  3.90753776E-04
  1.73619088E-04  4.17334699E-03  1.50198978E-03  2.81930186E-04 -1.50070158E-03
  8.09599042E-04 -6.83877147E-04  5.03168790E-04  1.24757435E-05  6.72282325E-06
  1.18862882E-03  1.37439910E-02  6.33826692E-03  1.37271248E-02  5.43281248E-03
 -1.37439910E-02 -6.33826692E-03 -1.37271248E-02 -5.43281248E-03  1.17664139E-02