 Entering Gaussian System, Link 0=g09
 Input=A_B_60.gjf
 Output=A_B_60.log
 Initial command:
 /opt/share/GAUSSIAN/v09-D.01.app/g09/l1.exe "/tmp/Gau-14163.inp" -scrdir="/tmp/"
 Entering Link 1 = /opt/share/GAUSSIAN/v09-D.01.app/g09/l1.exe PID=     14164.
  
 Copyright (c) 1988,1990,1992,1993,1995,1998,2003,2009,2013,
            Gaussian, Inc.  All Rights Reserved.
  
 This is part of the Gaussian(R) 09 program.  It is based on
 the Gaussian(R) 03 system (copyright 2003, Gaussian, Inc.),
 the Gaussian(R) 98 system (copyright 1998, Gaussian, Inc.),
 the Gaussian(R) 94 system (copyright 1995, Gaussian, Inc.),
 the Gaussian 92(TM) system (copyright 1992, Gaussian, Inc.),
 the Gaussian 90(TM) system (copyright 1990, Gaussian, Inc.),
 the Gaussian 88(TM) system (copyright 1988, Gaussian, Inc.),
 the Gaussian 86(TM) system (copyright 1986, Carnegie Mellon
 University), and the Gaussian 82(TM) system (copyright 1983,
 Carnegie Mellon University). Gaussian is a federally registered
 trademark of Gaussian, Inc.
  
 This software contains proprietary and confidential information,
 including trade secrets, belonging to Gaussian, Inc.
  
 This software is provided under written license and may be
 used, copied, transmitted, or stored only in accord with that
 written license.
  
 The following legend is applicable only to US Government
 contracts under FAR:
  
                    RESTRICTED RIGHTS LEGEND
  
 Use, reproduction and disclosure by the US Government is
 subject to restrictions as set forth in subparagraphs (a)
 and (c) of the Commercial Computer Software - Restricted
 Rights clause in FAR 52.227-19.
  
 Gaussian, Inc.
 340 Quinnipiac St., Bldg. 40, Wallingford CT 06492
  
  
 ---------------------------------------------------------------
 Warning -- This program may not be used in any manner that
 competes with the business of Gaussian, Inc. or will provide
 assistance to any competitor of Gaussian, Inc.  The licensee
 of this program is prohibited from giving any competitor of
 Gaussian, Inc. access to this program.  By using this program,
 the user acknowledges that Gaussian, Inc. is engaged in the
 business of creating and licensing software in the field of
 computational chemistry and represents and warrants to the
 licensee that it is not a competitor of Gaussian, Inc. and that
 it will not use this program in any manner prohibited above.
 ---------------------------------------------------------------
  

 Cite this work as:
 Gaussian 09, Revision D.01,
 M. J. Frisch, G. W. Trucks, H. B. Schlegel, G. E. Scuseria, 
 M. A. Robb, J. R. Cheeseman, G. Scalmani, V. Barone, B. Mennucci, 
 G. A. Petersson, H. Nakatsuji, M. Caricato, X. Li, H. P. Hratchian, 
 A. F. Izmaylov, J. Bloino, G. Zheng, J. L. Sonnenberg, M. Hada, 
 M. Ehara, K. Toyota, R. Fukuda, J. Hasegawa, M. Ishida, T. Nakajima, 
 Y. Honda, O. Kitao, H. Nakai, T. Vreven, J. A. Montgomery, Jr., 
 J. E. Peralta, F. Ogliaro, M. Bearpark, J. J. Heyd, E. Brothers, 
 K. N. Kudin, V. N. Staroverov, T. Keith, R. Kobayashi, J. Normand, 
 K. Raghavachari, A. Rendell, J. C. Burant, S. S. Iyengar, J. Tomasi, 
 M. Cossi, N. Rega, J. M. Millam, M. Klene, J. E. Knox, J. B. Cross, 
 V. Bakken, C. Adamo, J. Jaramillo, R. Gomperts, R. E. Stratmann, 
 O. Yazyev, A. J. Austin, R. Cammi, C. Pomelli, J. W. Ochterski, 
 R. L. Martin, K. Morokuma, V. G. Zakrzewski, G. A. Voth, 
 P. Salvador, J. J. Dannenberg, S. Dapprich, A. D. Daniels, 
 O. Farkas, J. B. Foresman, J. V. Ortiz, J. Cioslowski, 
 and D. J. Fox, Gaussian, Inc., Wallingford CT, 2013.
 
 ******************************************
 Gaussian 09:  ES64L-G09RevD.01 24-Apr-2013
                18-Sep-2016 
 ******************************************
 % mem=4GB
 % nprocshared=4
 Will use up to    4 processors via shared memory.
 % chk=A_B_60.chk
 ------------------------------------------------
 # B3LYP/6-31+G* int=ultrafine nosymm pop=nboread
 ------------------------------------------------
 1/38=1/1;
 2/12=2,15=1,17=6,18=5,40=1/2;
 3/5=1,6=6,7=11,11=2,16=1,25=1,30=1,74=-5,75=-5/1,2,3;
 4//1;
 5/5=2,38=5/2;
 6/7=2,8=2,9=2,10=2,28=1,40=2/1,7;
 99/5=1,9=1/99;
 ------
 A_B_60
 ------
 Symbolic Z-matrix:
 Charge =  0 Multiplicity = 1
 C                     0.67275   0.        0. 
 C                    -0.67275   0.        0. 
 H                     1.24262   0.93481   0. 
 H                     1.24262  -0.93481   0. 
 H                    -1.24262   0.93481   0. 
 H                    -1.24262  -0.93481   0. 
 C                     0.67275   0.        5. 
 C                    -0.67275   0.        5. 
 H                     1.24262   0.4674    4.19043 
 H                     1.24262  -0.4674    5.80957 
 H                    -1.24262   0.4674    4.19043 
 H                    -1.24262  -0.4674    5.80957 
 
                          Input orientation:                          
 ---------------------------------------------------------------------
 Center     Atomic      Atomic             Coordinates (Angstroms)
 Number     Number       Type             X           Y           Z
 ---------------------------------------------------------------------
      1          6           0        0.672749    0.000000    0.000000
      2          6           0       -0.672749    0.000000    0.000000
      3          1           0        1.242623    0.934806    0.000000
      4          1           0        1.242623   -0.934806    0.000000
      5          1           0       -1.242623    0.934806    0.000000
      6          1           0       -1.242623   -0.934806    0.000000
      7          6           0        0.672749    0.000000    5.000000
      8          6           0       -0.672749    0.000000    5.000000
      9          1           0        1.242623    0.467403    4.190434
     10          1           0        1.242623   -0.467403    5.809566
     11          1           0       -1.242623    0.467403    4.190434
     12          1           0       -1.242623   -0.467403    5.809566
 ---------------------------------------------------------------------
                    Distance matrix (angstroms):
                    1          2          3          4          5
     1  C    0.000000
     2  C    1.345498   0.000000
     3  H    1.094814   2.131317   0.000000
     4  H    1.094814   2.131317   1.869612   0.000000
     5  H    2.131317   1.094814   2.485246   3.109967   0.000000
     6  H    2.131317   1.094814   3.109967   2.485246   1.869612
     7  C    5.000000   5.177873   5.118459   5.118459   5.435302
     8  C    5.177873   5.000000   5.435302   5.435302   5.118459
     9  H    4.254757   4.631075   4.216421   4.418815   4.894349
    10  H    5.856132   6.134996   5.976391   5.828338   6.472534
    11  H    4.631075   4.254757   4.894349   5.069751   4.216421
    12  H    6.134996   5.856132   6.472534   6.336085   5.976391
                    6          7          8          9         10
     6  H    0.000000
     7  C    5.435302   0.000000
     8  C    5.118459   1.345498   0.000000
     9  H    5.069751   1.094815   2.131317   0.000000
    10  H    6.336085   1.094815   2.131317   1.869612   0.000000
    11  H    4.418815   2.131317   1.094815   2.485246   3.109968
    12  H    5.828338   2.131317   1.094815   3.109968   2.485246
                   11         12
    11  H    0.000000
    12  H    1.869612   0.000000
 Symmetry turned off by external request.
 Stoichiometry    C4H8
 Framework group  CS[X(C4H8)]
 Deg. of freedom    15
 Full point group                 CS      NOp   2
 Rotational constants (GHZ):     13.1026449      1.4138973      1.3051673
 Standard basis: 6-31+G(d) (6D, 7F)
    92 basis functions,   160 primitive gaussians,    92 cartesian basis functions
    16 alpha electrons       16 beta electrons
       nuclear repulsion energy        92.4844661633 Hartrees.
 NAtoms=   12 NActive=   12 NUniq=   12 SFac= 1.00D+00 NAtFMM=   60 NAOKFM=F Big=F
 Integral buffers will be    131072 words long.
 Raffenetti 2 integral format.
 Two-electron integral symmetry is turned off.
 One-electron integrals computed using PRISM.
 NBasis=    92 RedAO= T EigKep=  1.65D-04  NBF=    92
 NBsUse=    92 1.00D-06 EigRej= -1.00D+00 NBFU=    92
 ExpMin= 4.38D-02 ExpMax= 3.05D+03 ExpMxC= 4.57D+02 IAcc=3 IRadAn=         5 AccDes= 0.00D+00
 Harris functional with IExCor=  402 and IRadAn=       5 diagonalized for initial guess.
 HarFok:  IExCor=  402 AccDes= 0.00D+00 IRadAn=         5 IDoV= 1 UseB2=F ITyADJ=14
 ICtDFT=  3500011 ScaDFX=  1.000000  1.000000  1.000000  1.000000
 FoFCou: FMM=F IPFlag=           0 FMFlag=      100000 FMFlg1=           0
         NFxFlg=           0 DoJE=T BraDBF=F KetDBF=T FulRan=T
         wScrn=  0.000000 ICntrl=     500 IOpCl=  0 I1Cent=   200000004 NGrid=           0
         NMat0=    1 NMatS0=      1 NMatT0=    0 NMatD0=    1 NMtDS0=    0 NMtDT0=    0
 Symmetry not used in FoFCou.
 Keep R1 ints in memory in canonical form, NReq=10115209.
 Requested convergence on RMS density matrix=1.00D-08 within 128 cycles.
 Requested convergence on MAX density matrix=1.00D-06.
 Requested convergence on             energy=1.00D-06.
 No special actions if energy rises.
 SCF Done:  E(RB3LYP) =  -157.185931701     A.U. after    9 cycles
            NFock=  9  Conv=0.40D-08     -V/T= 2.0119

 **********************************************************************

            Population analysis using the SCF density.

 **********************************************************************

 Alpha  occ. eigenvalues --  -10.19914 -10.19833 -10.19596 -10.19515  -0.76256
 Alpha  occ. eigenvalues --   -0.75931  -0.58498  -0.58185  -0.47314  -0.46987
 Alpha  occ. eigenvalues --   -0.42319  -0.42005  -0.36367  -0.36048  -0.27684
 Alpha  occ. eigenvalues --   -0.27292
 Alpha virt. eigenvalues --   -0.01259  -0.00589   0.01400   0.02389   0.03320
 Alpha virt. eigenvalues --    0.04276   0.04394   0.06058   0.07595   0.07841
 Alpha virt. eigenvalues --    0.08468   0.09397   0.10234   0.12053   0.13225
 Alpha virt. eigenvalues --    0.14692   0.15295   0.17334   0.17547   0.19482
 Alpha virt. eigenvalues --    0.19689   0.22454   0.24588   0.26888   0.34448
 Alpha virt. eigenvalues --    0.34654   0.34928   0.36852   0.57833   0.58550
 Alpha virt. eigenvalues --    0.65786   0.66443   0.67907   0.70370   0.72372
 Alpha virt. eigenvalues --    0.72906   0.75731   0.78456   0.83135   0.86626
 Alpha virt. eigenvalues --    0.89994   0.91316   0.93455   0.94585   0.96114
 Alpha virt. eigenvalues --    1.00297   1.01553   1.03995   1.16495   1.17246
 Alpha virt. eigenvalues --    1.21934   1.22610   1.44771   1.45062   1.53856
 Alpha virt. eigenvalues --    1.54371   1.81603   1.81971   1.88499   1.88986
 Alpha virt. eigenvalues --    1.99963   2.00712   2.10802   2.11149   2.29399
 Alpha virt. eigenvalues --    2.29821   2.37044   2.37313   2.66457   2.66860
 Alpha virt. eigenvalues --    2.69959   2.70892   4.11723   4.14102   4.25085
 Alpha virt. eigenvalues --    4.26377
          Condensed to atoms (all electrons):
               1          2          3          4          5          6
     1  C    5.016856   0.662376   0.383950   0.381727  -0.038336  -0.035575
     2  C    0.662376   5.016856  -0.038336  -0.035575   0.383950   0.381727
     3  H    0.383950  -0.038336   0.507811  -0.033193  -0.006656   0.003945
     4  H    0.381727  -0.035575  -0.033193   0.505344   0.003945  -0.006629
     5  H   -0.038336   0.383950  -0.006656   0.003945   0.507811  -0.033193
     6  H   -0.035575   0.381727   0.003945  -0.006629  -0.033193   0.505344
     7  C   -0.000997  -0.001489  -0.000092  -0.000001   0.000091   0.000035
     8  C   -0.001489  -0.000997   0.000091   0.000035  -0.000092  -0.000001
     9  H    0.001169  -0.000781  -0.000002  -0.000003   0.000000   0.000000
    10  H    0.000038   0.000021   0.000000   0.000000   0.000000   0.000000
    11  H   -0.000781   0.001169   0.000000   0.000000  -0.000002  -0.000003
    12  H    0.000021   0.000038   0.000000   0.000000   0.000000   0.000000
               7          8          9         10         11         12
     1  C   -0.000997  -0.001489   0.001169   0.000038  -0.000781   0.000021
     2  C   -0.001489  -0.000997  -0.000781   0.000021   0.001169   0.000038
     3  H   -0.000092   0.000091  -0.000002   0.000000   0.000000   0.000000
     4  H   -0.000001   0.000035  -0.000003   0.000000   0.000000   0.000000
     5  H    0.000091  -0.000092   0.000000   0.000000  -0.000002   0.000000
     6  H    0.000035  -0.000001   0.000000   0.000000  -0.000003   0.000000
     7  C    4.997984   0.676043   0.378714   0.382863  -0.031802  -0.037634
     8  C    0.676043   4.997984  -0.031802  -0.037634   0.378714   0.382863
     9  H    0.378714  -0.031802   0.505090  -0.033366  -0.006669   0.003943
    10  H    0.382863  -0.037634  -0.033366   0.508789   0.003943  -0.006787
    11  H   -0.031802   0.378714  -0.006669   0.003943   0.505090  -0.033366
    12  H   -0.037634   0.382863   0.003943  -0.006787  -0.033366   0.508789
 Mulliken charges:
               1
     1  C   -0.368958
     2  C   -0.368958
     3  H    0.182483
     4  H    0.184351
     5  H    0.182483
     6  H    0.184351
     7  C   -0.363714
     8  C   -0.363714
     9  H    0.183707
    10  H    0.182133
    11  H    0.183707
    12  H    0.182133
 Sum of Mulliken charges =   0.00000
 Mulliken charges with hydrogens summed into heavy atoms:
               1
     1  C   -0.002125
     2  C   -0.002125
     7  C    0.002125
     8  C    0.002125
 Electronic spatial extent (au):  <R**2>=           1597.5503
 Charge=              0.0000 electrons
 Dipole moment (field-independent basis, Debye):
    X=              0.0000    Y=             -0.0160    Z=             -0.0322  Tot=              0.0360
 Quadrupole moment (field-independent basis, Debye-Ang):
   XX=            -24.8875   YY=            -27.6174   ZZ=            -29.8876
   XY=              0.0000   XZ=              0.0000   YZ=             -1.6049
 Traceless Quadrupole moment (field-independent basis, Debye-Ang):
   XX=              2.5767   YY=             -0.1532   ZZ=             -2.4235
   XY=              0.0000   XZ=              0.0000   YZ=             -1.6049
 Octapole moment (field-independent basis, Debye-Ang**2):
  XXX=              0.0000  YYY=             -0.0548  ZZZ=           -203.2202  XYY=              0.0000
  XXY=             -0.0219  XXZ=            -62.2813  XZZ=              0.0000  YZZ=            -16.0660
  YYZ=            -76.0597  XYZ=              0.0000
 Hexadecapole moment (field-independent basis, Debye-Ang**3):
 XXXX=           -143.9165 YYYY=            -53.6006 ZZZZ=          -2074.6027 XXXY=              0.0000
 XXXZ=              0.0000 YYYX=              0.0000 YYYZ=              1.6822 ZZZX=              0.0000
 ZZZY=           -119.7437 XXYY=            -30.4463 XXZZ=           -343.6139 YYZZ=           -398.2537
 XXYZ=             -1.0636 YYXZ=              0.0000 ZZXY=              0.0000
 N-N= 9.248446616335D+01 E-N=-5.473349881809D+02  KE= 1.553434055672D+02
 ******************************Gaussian NBO Version 3.1******************************
             N A T U R A L   A T O M I C   O R B I T A L   A N D
          N A T U R A L   B O N D   O R B I T A L   A N A L Y S I S
 ******************************Gaussian NBO Version 3.1******************************

       /RESON  / : Allow strongly delocalized NBO set
       /FAO    / : Write the AO Fock matrix to LFN 44
       /SAO    / : Write the AO overlap matrix to LFN 43

 Analyzing the SCF density

 Job title: A_B_60                                                          

 Storage needed:     25928 in NPA,     34295 in NBO ( 536870096 available)


 NATURAL POPULATIONS:  Natural atomic orbital occupancies 
                                                          
   NAO  Atom  No  lang   Type(AO)    Occupancy      Energy
 ----------------------------------------------------------
     1    C    1  S      Cor( 1S)     1.99926     -10.06597
     2    C    1  S      Val( 2S)     1.08318      -0.25269
     3    C    1  S      Ryd( 4S)     0.00145       0.86290
     4    C    1  S      Ryd( 3S)     0.00022       0.62196
     5    C    1  S      Ryd( 5S)     0.00000       3.92505
     6    C    1  px     Val( 2p)     1.13216      -0.05672
     7    C    1  px     Ryd( 4p)     0.00376       0.41807
     8    C    1  px     Ryd( 3p)     0.00009       0.34442
     9    C    1  py     Val( 2p)     1.21787      -0.05434
    10    C    1  py     Ryd( 4p)     0.00334       0.82793
    11    C    1  py     Ryd( 3p)     0.00029       0.35979
    12    C    1  pz     Val( 2p)     0.99619      -0.11923
    13    C    1  pz     Ryd( 4p)     0.00271       0.44037
    14    C    1  pz     Ryd( 3p)     0.00027       0.39204
    15    C    1  dxy    Ryd( 3d)     0.00104       2.24509
    16    C    1  dxz    Ryd( 3d)     0.00063       1.90168
    17    C    1  dyz    Ryd( 3d)     0.00000       1.67727
    18    C    1  dx2y2  Ryd( 3d)     0.00059       2.29482
    19    C    1  dz2    Ryd( 3d)     0.00057       2.10436

    20    C    2  S      Cor( 1S)     1.99926     -10.06597
    21    C    2  S      Val( 2S)     1.08318      -0.25269
    22    C    2  S      Ryd( 4S)     0.00145       0.86290
    23    C    2  S      Ryd( 3S)     0.00022       0.62196
    24    C    2  S      Ryd( 5S)     0.00000       3.92505
    25    C    2  px     Val( 2p)     1.13216      -0.05672
    26    C    2  px     Ryd( 4p)     0.00376       0.41807
    27    C    2  px     Ryd( 3p)     0.00009       0.34442
    28    C    2  py     Val( 2p)     1.21787      -0.05434
    29    C    2  py     Ryd( 4p)     0.00334       0.82793
    30    C    2  py     Ryd( 3p)     0.00029       0.35979
    31    C    2  pz     Val( 2p)     0.99619      -0.11923
    32    C    2  pz     Ryd( 4p)     0.00271       0.44037
    33    C    2  pz     Ryd( 3p)     0.00027       0.39204
    34    C    2  dxy    Ryd( 3d)     0.00104       2.24509
    35    C    2  dxz    Ryd( 3d)     0.00063       1.90168
    36    C    2  dyz    Ryd( 3d)     0.00000       1.67727
    37    C    2  dx2y2  Ryd( 3d)     0.00059       2.29482
    38    C    2  dz2    Ryd( 3d)     0.00057       2.10436

    39    H    3  S      Val( 1S)     0.77793       0.07834
    40    H    3  S      Ryd( 2S)     0.00088       0.61481

    41    H    4  S      Val( 1S)     0.77648       0.07986
    42    H    4  S      Ryd( 2S)     0.00087       0.61540

    43    H    5  S      Val( 1S)     0.77793       0.07834
    44    H    5  S      Ryd( 2S)     0.00088       0.61481

    45    H    6  S      Val( 1S)     0.77648       0.07986
    46    H    6  S      Ryd( 2S)     0.00087       0.61540

    47    C    7  S      Cor( 1S)     1.99926     -10.06285
    48    C    7  S      Val( 2S)     1.08304      -0.24912
    49    C    7  S      Ryd( 4S)     0.00145       0.86005
    50    C    7  S      Ryd( 3S)     0.00022       0.64826
    51    C    7  S      Ryd( 5S)     0.00000       3.87391
    52    C    7  px     Val( 2p)     1.13212      -0.05356
    53    C    7  px     Ryd( 4p)     0.00374       0.41952
    54    C    7  px     Ryd( 3p)     0.00009       0.34743
    55    C    7  py     Val( 2p)     1.05186      -0.09985
    56    C    7  py     Ryd( 4p)     0.00287       0.53591
    57    C    7  py     Ryd( 3p)     0.00028       0.35055
    58    C    7  pz     Val( 2p)     1.16192      -0.06710
    59    C    7  pz     Ryd( 4p)     0.00316       0.73111
    60    C    7  pz     Ryd( 3p)     0.00035       0.40087
    61    C    7  dxy    Ryd( 3d)     0.00074       1.99055
    62    C    7  dxz    Ryd( 3d)     0.00094       2.16273
    63    C    7  dyz    Ryd( 3d)     0.00054       1.94362
    64    C    7  dx2y2  Ryd( 3d)     0.00034       2.21904
    65    C    7  dz2    Ryd( 3d)     0.00028       1.92467

    66    C    8  S      Cor( 1S)     1.99926     -10.06285
    67    C    8  S      Val( 2S)     1.08304      -0.24912
    68    C    8  S      Ryd( 4S)     0.00145       0.86005
    69    C    8  S      Ryd( 3S)     0.00022       0.64826
    70    C    8  S      Ryd( 5S)     0.00000       3.87391
    71    C    8  px     Val( 2p)     1.13212      -0.05356
    72    C    8  px     Ryd( 4p)     0.00374       0.41952
    73    C    8  px     Ryd( 3p)     0.00009       0.34743
    74    C    8  py     Val( 2p)     1.05186      -0.09985
    75    C    8  py     Ryd( 4p)     0.00287       0.53591
    76    C    8  py     Ryd( 3p)     0.00028       0.35055
    77    C    8  pz     Val( 2p)     1.16192      -0.06710
    78    C    8  pz     Ryd( 4p)     0.00316       0.73111
    79    C    8  pz     Ryd( 3p)     0.00035       0.40087
    80    C    8  dxy    Ryd( 3d)     0.00074       1.99055
    81    C    8  dxz    Ryd( 3d)     0.00094       2.16273
    82    C    8  dyz    Ryd( 3d)     0.00054       1.94362
    83    C    8  dx2y2  Ryd( 3d)     0.00034       2.21904
    84    C    8  dz2    Ryd( 3d)     0.00028       1.92467

    85    H    9  S      Val( 1S)     0.77633       0.08355
    86    H    9  S      Ryd( 2S)     0.00103       0.62012

    87    H   10  S      Val( 1S)     0.77873       0.08093
    88    H   10  S      Ryd( 2S)     0.00090       0.61644

    89    H   11  S      Val( 1S)     0.77633       0.08355
    90    H   11  S      Ryd( 2S)     0.00103       0.62012

    91    H   12  S      Val( 1S)     0.77873       0.08093
    92    H   12  S      Ryd( 2S)     0.00090       0.61644

 WARNING:  Population inversion found on atom  C    1
           Population inversion found on atom  C    2
           Population inversion found on atom  C    7
           Population inversion found on atom  C    8


 Summary of Natural Population Analysis:                  
                                                          
                                       Natural Population 
                Natural  -----------------------------------------------
    Atom  No    Charge         Core      Valence    Rydberg      Total
 -----------------------------------------------------------------------
      C    1   -0.44364      1.99926     4.42940    0.01497     6.44364
      C    2   -0.44364      1.99926     4.42940    0.01497     6.44364
      H    3    0.22119      0.00000     0.77793    0.00088     0.77881
      H    4    0.22265      0.00000     0.77648    0.00087     0.77735
      H    5    0.22119      0.00000     0.77793    0.00088     0.77881
      H    6    0.22265      0.00000     0.77648    0.00087     0.77735
      C    7   -0.44322      1.99926     4.42894    0.01501     6.44322
      C    8   -0.44322      1.99926     4.42894    0.01501     6.44322
      H    9    0.22264      0.00000     0.77633    0.00103     0.77736
      H   10    0.22037      0.00000     0.77873    0.00090     0.77963
      H   11    0.22264      0.00000     0.77633    0.00103     0.77736
      H   12    0.22037      0.00000     0.77873    0.00090     0.77963
 =======================================================================
   * Total *    0.00000      7.99704    23.93563    0.06733    32.00000

                                 Natural Population      
 --------------------------------------------------------
   Core                       7.99704 ( 99.9631% of   8)
   Valence                   23.93563 ( 99.7318% of  24)
   Natural Minimal Basis     31.93267 ( 99.7896% of  32)
   Natural Rydberg Basis      0.06733 (  0.2104% of  32)
 --------------------------------------------------------

    Atom  No          Natural Electron Configuration
 ----------------------------------------------------------------------------
      C    1      [core]2S( 1.08)2p( 3.35)4p( 0.01)
      C    2      [core]2S( 1.08)2p( 3.35)4p( 0.01)
      H    3            1S( 0.78)
      H    4            1S( 0.78)
      H    5            1S( 0.78)
      H    6            1S( 0.78)
      C    7      [core]2S( 1.08)2p( 3.35)4p( 0.01)
      C    8      [core]2S( 1.08)2p( 3.35)4p( 0.01)
      H    9            1S( 0.78)
      H   10            1S( 0.78)
      H   11            1S( 0.78)
      H   12            1S( 0.78)


 NATURAL BOND ORBITAL ANALYSIS:

                       Occupancies       Lewis Structure    Low   High
           Occ.    -------------------  -----------------   occ   occ
  Cycle   Thresh.   Lewis   Non-Lewis     CR  BD  3C  LP    (L)   (NL)   Dev
 =============================================================================
   1(1)    1.90    31.88780   0.11220      4  12   0   0     0      0    0.04
 -----------------------------------------------------------------------------

 Structure accepted: No low occupancy Lewis orbitals

 --------------------------------------------------------
   Core                      7.99706 ( 99.963% of   8)
   Valence Lewis            23.89074 ( 99.545% of  24)
  ==================       ============================
   Total Lewis              31.88780 ( 99.649% of  32)
  -----------------------------------------------------
   Valence non-Lewis         0.08279 (  0.259% of  32)
   Rydberg non-Lewis         0.02941 (  0.092% of  32)
  ==================       ============================
   Total non-Lewis           0.11220 (  0.351% of  32)
 --------------------------------------------------------


       (Occupancy)   Bond orbital/ Coefficients/ Hybrids
 ---------------------------------------------------------------------------------
     1. (1.99761) BD ( 1) C   1 - C   2  
                ( 50.00%)   0.7071* C   1 s( 39.11%)p 1.56( 60.85%)d 0.00(  0.04%)
                                            0.0000  0.6248 -0.0275 -0.0037 -0.0001
                                           -0.7786  0.0471  0.0022  0.0002  0.0000
                                            0.0001 -0.0076 -0.0006  0.0010  0.0000
                                            0.0002  0.0000  0.0170 -0.0114
                ( 50.00%)   0.7071* C   2 s( 39.11%)p 1.56( 60.85%)d 0.00(  0.04%)
                                            0.0000  0.6248 -0.0275 -0.0037 -0.0001
                                            0.7786 -0.0471 -0.0022  0.0002  0.0000
                                            0.0001 -0.0076 -0.0006  0.0010  0.0000
                                           -0.0002  0.0000  0.0170 -0.0114
     2. (1.99944) BD ( 2) C   1 - C   2  
                ( 50.00%)   0.7071* C   1 s(  0.00%)p 1.00( 99.93%)d 0.00(  0.06%)
                                            0.0000  0.0048 -0.0010  0.0023 -0.0001
                                           -0.0060  0.0004 -0.0004 -0.0002  0.0003
                                           -0.0001  0.9982  0.0517 -0.0150  0.0000
                                           -0.0252  0.0001  0.0002  0.0001
                ( 50.00%)   0.7071* C   2 s(  0.00%)p 1.00( 99.93%)d 0.00(  0.06%)
                                            0.0000  0.0048 -0.0010  0.0023 -0.0001
                                            0.0060 -0.0004  0.0004 -0.0002  0.0003
                                           -0.0001  0.9982  0.0517 -0.0150  0.0000
                                            0.0252  0.0001  0.0002  0.0001
     3. (1.98707) BD ( 1) C   1 - H   3  
                ( 61.15%)   0.7820* C   1 s( 30.44%)p 2.28( 69.50%)d 0.00(  0.06%)
                                           -0.0002  0.5516  0.0123  0.0017  0.0001
                                            0.4414 -0.0153 -0.0009  0.7070  0.0037
                                            0.0104  0.0002 -0.0001  0.0010  0.0180
                                            0.0000  0.0000 -0.0106 -0.0136
                ( 38.85%)   0.6233* H   3 s(100.00%)
                                            1.0000  0.0023
     4. (1.98701) BD ( 1) C   1 - H   4  
                ( 61.22%)   0.7824* C   1 s( 30.49%)p 2.28( 69.45%)d 0.00(  0.06%)
                                           -0.0002  0.5520  0.0122  0.0018  0.0000
                                            0.4414 -0.0150 -0.0010 -0.7066 -0.0037
                                           -0.0103 -0.0001 -0.0004  0.0011 -0.0180
                                            0.0000  0.0000 -0.0106 -0.0135
                ( 38.78%)   0.6228* H   4 s(100.00%)
                                            1.0000  0.0023
     5. (1.98707) BD ( 1) C   2 - H   5  
                ( 61.15%)   0.7820* C   2 s( 30.44%)p 2.28( 69.50%)d 0.00(  0.06%)
                                            0.0002 -0.5516 -0.0123 -0.0017 -0.0001
                                            0.4414 -0.0153 -0.0009 -0.7070 -0.0037
                                           -0.0104 -0.0002  0.0001 -0.0010  0.0180
                                            0.0000  0.0000  0.0106  0.0136
                ( 38.85%)   0.6233* H   5 s(100.00%)
                                           -1.0000 -0.0023
     6. (1.98701) BD ( 1) C   2 - H   6  
                ( 61.22%)   0.7824* C   2 s( 30.49%)p 2.28( 69.45%)d 0.00(  0.06%)
                                            0.0002 -0.5520 -0.0122 -0.0018  0.0000
                                            0.4414 -0.0150 -0.0010  0.7066  0.0037
                                            0.0103  0.0001  0.0004 -0.0011 -0.0180
                                            0.0000  0.0000  0.0106  0.0135
                ( 38.78%)   0.6228* H   6 s(100.00%)
                                           -1.0000 -0.0023
     7. (1.99975) BD ( 1) C   7 - C   8  
                ( 50.00%)   0.7071* C   7 s(  2.62%)p37.11( 97.32%)d 0.02(  0.06%)
                                            0.0000  0.1618 -0.0064 -0.0024  0.0001
                                           -0.2023  0.0117  0.0011  0.8347  0.0435
                                           -0.0139  0.4823  0.0245 -0.0066 -0.0211
                                           -0.0122 -0.0001  0.0047 -0.0024
                ( 50.00%)   0.7071* C   8 s(  2.62%)p37.11( 97.32%)d 0.02(  0.06%)
                                            0.0000  0.1618 -0.0064 -0.0024  0.0001
                                            0.2023 -0.0117 -0.0011  0.8347  0.0435
                                           -0.0139  0.4823  0.0245 -0.0066  0.0211
                                            0.0122 -0.0001  0.0047 -0.0024
     8. (1.99773) BD ( 2) C   7 - C   8  
                ( 50.00%)   0.7071* C   7 s( 36.50%)p 1.74( 63.46%)d 0.00(  0.04%)
                                            0.0000  0.6035 -0.0269 -0.0030 -0.0001
                                           -0.7518  0.0455  0.0022 -0.2244 -0.0117
                                            0.0037 -0.1293 -0.0063  0.0011  0.0057
                                            0.0032 -0.0012  0.0174 -0.0093
                ( 50.00%)   0.7071* C   8 s( 36.50%)p 1.74( 63.46%)d 0.00(  0.04%)
                                            0.0000  0.6035 -0.0269 -0.0030 -0.0001
                                            0.7518 -0.0455 -0.0022 -0.2244 -0.0117
                                            0.0037 -0.1293 -0.0063  0.0011 -0.0057
                                           -0.0032 -0.0012  0.0174 -0.0093
     9. (1.98695) BD ( 1) C   7 - H   9  
                ( 61.23%)   0.7825* C   7 s( 30.51%)p 2.28( 69.43%)d 0.00(  0.06%)
                                           -0.0002  0.5522  0.0123  0.0018  0.0000
                                            0.4415 -0.0146 -0.0008  0.3536  0.0021
                                            0.0053 -0.6115 -0.0025 -0.0107  0.0090
                                           -0.0155 -0.0148  0.0022  0.0085
                ( 38.77%)   0.6227* H   9 s(100.00%)
                                            1.0000  0.0024
    10. (1.98707) BD ( 1) C   7 - H  10  
                ( 61.11%)   0.7817* C   7 s( 30.42%)p 2.29( 69.52%)d 0.00(  0.06%)
                                           -0.0002  0.5514  0.0123  0.0015  0.0000
                                            0.4414 -0.0153 -0.0012 -0.3535 -0.0018
                                           -0.0053  0.6125  0.0033  0.0085 -0.0090
                                            0.0156 -0.0148  0.0022  0.0086
                ( 38.89%)   0.6236* H  10 s(100.00%)
                                            1.0000  0.0023
    11. (1.98695) BD ( 1) C   8 - H  11  
                ( 61.23%)   0.7825* C   8 s( 30.51%)p 2.28( 69.43%)d 0.00(  0.06%)
                                            0.0002 -0.5522 -0.0123 -0.0018  0.0000
                                            0.4415 -0.0146 -0.0008 -0.3536 -0.0021
                                           -0.0053  0.6115  0.0025  0.0107  0.0090
                                           -0.0155  0.0148 -0.0022 -0.0085
                ( 38.77%)   0.6227* H  11 s(100.00%)
                                           -1.0000 -0.0024
    12. (1.98707) BD ( 1) C   8 - H  12  
                ( 61.11%)   0.7817* C   8 s( 30.42%)p 2.29( 69.52%)d 0.00(  0.06%)
                                            0.0002 -0.5514 -0.0123 -0.0015  0.0000
                                            0.4414 -0.0153 -0.0012  0.3535  0.0018
                                            0.0053 -0.6125 -0.0033 -0.0085 -0.0090
                                            0.0156  0.0148 -0.0022 -0.0086
                ( 38.89%)   0.6236* H  12 s(100.00%)
                                           -1.0000 -0.0023
    13. (1.99927) CR ( 1) C   1           s(100.00%)p 0.00(  0.00%)
                                            1.0000  0.0002  0.0000  0.0000  0.0000
                                            0.0002  0.0000  0.0000  0.0000  0.0000
                                            0.0000  0.0000  0.0000  0.0000  0.0000
                                            0.0000  0.0000  0.0000  0.0000
    14. (1.99927) CR ( 1) C   2           s(100.00%)p 0.00(  0.00%)
                                            1.0000  0.0002  0.0000  0.0000  0.0000
                                           -0.0002  0.0000  0.0000  0.0000  0.0000
                                            0.0000  0.0000  0.0000  0.0000  0.0000
                                            0.0000  0.0000  0.0000  0.0000
    15. (1.99927) CR ( 1) C   7           s(100.00%)p 0.00(  0.00%)
                                            1.0000  0.0002  0.0000  0.0000  0.0000
                                            0.0002  0.0000  0.0000  0.0000  0.0000
                                            0.0000  0.0000  0.0000  0.0000  0.0000
                                            0.0000  0.0000  0.0000  0.0000
    16. (1.99927) CR ( 1) C   8           s(100.00%)p 0.00(  0.00%)
                                            1.0000  0.0002  0.0000  0.0000  0.0000
                                           -0.0002  0.0000  0.0000  0.0000  0.0000
                                            0.0000  0.0000  0.0000  0.0000  0.0000
                                            0.0000  0.0000  0.0000  0.0000
    17. (0.00372) RY*( 1) C   1           s(  0.00%)p 1.00( 91.25%)d 0.10(  8.75%)
                                            0.0000  0.0000  0.0014 -0.0010  0.0002
                                           -0.0001 -0.0013  0.0010  0.0140 -0.9490
                                           -0.1082  0.0002  0.0006 -0.0017 -0.2958
                                            0.0001 -0.0001 -0.0001  0.0000
    18. (0.00156) RY*( 2) C   1           s( 27.03%)p 2.69( 72.78%)d 0.01(  0.18%)
                                            0.0000  0.0113  0.4646 -0.2330 -0.0105
                                           -0.0564 -0.8214 -0.2224 -0.0003  0.0008
                                            0.0038  0.0011  0.0008  0.0212  0.0015
                                            0.0005 -0.0003 -0.0189 -0.0385
    19. (0.00013) RY*( 3) C   1           s( 69.14%)p 0.41( 28.43%)d 0.04(  2.43%)
                                            0.0000  0.0051 -0.1508  0.8151 -0.0659
                                           -0.0149 -0.2728 -0.1389  0.0013  0.0091
                                           -0.0691  0.0182 -0.3105  0.2980 -0.0091
                                           -0.0128  0.0063 -0.1046  0.1142
    20. (0.00006) RY*( 4) C   1           s( 29.22%)p 2.23( 65.25%)d 0.19(  5.52%)
    21. (0.00001) RY*( 5) C   1           s(  0.43%)p99.99( 99.50%)d 0.17(  0.07%)
    22. (0.00000) RY*( 6) C   1           s( 98.58%)p 0.01(  1.40%)d 0.00(  0.02%)
    23. (0.00000) RY*( 7) C   1           s(  0.20%)p99.99( 99.78%)d 0.10(  0.02%)
    24. (0.00000) RY*( 8) C   1           s( 61.54%)p 0.62( 38.42%)d 0.00(  0.04%)
    25. (0.00000) RY*( 9) C   1           s(  7.81%)p11.81( 92.19%)d 0.00(  0.01%)
    26. (0.00000) RY*(10) C   1           s(  0.00%)p 1.00(  8.84%)d10.32( 91.16%)
    27. (0.00000) RY*(11) C   1           s(  0.01%)p 1.00(  0.11%)d99.99( 99.89%)
    28. (0.00000) RY*(12) C   1           s(  0.00%)p 1.00(  0.01%)d99.99( 99.98%)
    29. (0.00000) RY*(13) C   1           s(  2.07%)p 0.35(  0.72%)d46.85( 97.21%)
    30. (0.00001) RY*(14) C   1           s(  3.92%)p 0.41(  1.59%)d24.10( 94.49%)
    31. (0.00372) RY*( 1) C   2           s(  0.00%)p 1.00( 91.25%)d 0.10(  8.75%)
                                            0.0000  0.0000  0.0014 -0.0010  0.0002
                                            0.0001  0.0013 -0.0010  0.0140 -0.9490
                                           -0.1082  0.0002  0.0006 -0.0017  0.2958
                                           -0.0001 -0.0001 -0.0001  0.0000
    32. (0.00156) RY*( 2) C   2           s( 27.03%)p 2.69( 72.78%)d 0.01(  0.18%)
                                            0.0000  0.0113  0.4646 -0.2330 -0.0105
                                            0.0564  0.8214  0.2224 -0.0003  0.0008
                                            0.0038  0.0011  0.0008  0.0212 -0.0015
                                           -0.0005 -0.0003 -0.0189 -0.0385
    33. (0.00013) RY*( 3) C   2           s( 69.14%)p 0.41( 28.43%)d 0.04(  2.43%)
                                            0.0000  0.0051 -0.1508  0.8151 -0.0659
                                            0.0149  0.2728  0.1389  0.0013  0.0091
                                           -0.0691  0.0182 -0.3105  0.2980  0.0091
                                            0.0128  0.0063 -0.1046  0.1142
    34. (0.00006) RY*( 4) C   2           s( 29.22%)p 2.23( 65.25%)d 0.19(  5.52%)
    35. (0.00001) RY*( 5) C   2           s(  0.43%)p99.99( 99.50%)d 0.17(  0.07%)
    36. (0.00000) RY*( 6) C   2           s( 98.58%)p 0.01(  1.40%)d 0.00(  0.02%)
    37. (0.00000) RY*( 7) C   2           s(  0.20%)p99.99( 99.78%)d 0.10(  0.02%)
    38. (0.00000) RY*( 8) C   2           s( 61.54%)p 0.62( 38.42%)d 0.00(  0.04%)
    39. (0.00000) RY*( 9) C   2           s(  7.81%)p11.81( 92.19%)d 0.00(  0.01%)
    40. (0.00000) RY*(10) C   2           s(  0.00%)p 1.00(  8.84%)d10.32( 91.16%)
    41. (0.00000) RY*(11) C   2           s(  0.01%)p 1.00(  0.11%)d99.99( 99.89%)
    42. (0.00000) RY*(12) C   2           s(  0.00%)p 1.00(  0.01%)d99.99( 99.98%)
    43. (0.00000) RY*(13) C   2           s(  2.07%)p 0.35(  0.72%)d46.85( 97.21%)
    44. (0.00001) RY*(14) C   2           s(  3.92%)p 0.41(  1.59%)d24.10( 94.49%)
    45. (0.00088) RY*( 1) H   3           s(100.00%)
                                           -0.0023  1.0000
    46. (0.00088) RY*( 1) H   4           s(100.00%)
                                           -0.0023  1.0000
    47. (0.00088) RY*( 1) H   5           s(100.00%)
                                           -0.0023  1.0000
    48. (0.00088) RY*( 1) H   6           s(100.00%)
                                           -0.0023  1.0000
    49. (0.00373) RY*( 1) C   7           s(  0.00%)p 1.00( 91.28%)d 0.10(  8.71%)
                                            0.0000 -0.0003  0.0032 -0.0021  0.0018
                                            0.0001  0.0048 -0.0090  0.0074 -0.4733
                                           -0.0531 -0.0119  0.8220  0.0998 -0.1473
                                            0.2558 -0.0007  0.0003 -0.0006
    50. (0.00158) RY*( 2) C   7           s( 26.76%)p 2.73( 73.06%)d 0.01(  0.18%)
                                            0.0000  0.0114  0.4550 -0.2459 -0.0045
                                           -0.0560 -0.8218 -0.2279 -0.0005 -0.0047
                                           -0.0010 -0.0008 -0.0025 -0.0100 -0.0008
                                            0.0023 -0.0362  0.0138  0.0181
    51. (0.00012) RY*( 3) C   7           s( 75.90%)p 0.27( 20.65%)d 0.05(  3.46%)
                                            0.0000  0.0047  0.0907  0.8664 -0.0006
                                           -0.0178 -0.1602 -0.1711 -0.0117  0.1346
                                            0.0147 -0.0001  0.1372 -0.3375  0.0290
                                           -0.0368  0.0231 -0.1708  0.0515
    52. (0.00007) RY*( 4) C   7           s( 14.66%)p 5.43( 79.59%)d 0.39(  5.75%)
    53. (0.00000) RY*( 5) C   7           s(  2.64%)p36.85( 97.33%)d 0.01(  0.03%)
    54. (0.00000) RY*( 6) C   7           s(  0.39%)p99.99( 99.61%)d 0.01(  0.00%)
    55. (0.00000) RY*( 7) C   7           s(  0.00%)p 1.00(100.00%)d 0.00(  0.00%)
    56. (0.00000) RY*( 8) C   7           s( 99.53%)p 0.00(  0.44%)d 0.00(  0.03%)
    57. (0.00000) RY*( 9) C   7           s( 74.15%)p 0.35( 25.77%)d 0.00(  0.08%)
    58. (0.00000) RY*(10) C   7           s(  0.01%)p99.99(  2.92%)d99.99( 97.07%)
    59. (0.00000) RY*(11) C   7           s(  0.02%)p99.99(  7.12%)d99.99( 92.87%)
    60. (0.00000) RY*(12) C   7           s(  0.81%)p 1.91(  1.54%)d99.99( 97.65%)
    61. (0.00000) RY*(13) C   7           s(  4.71%)p 0.16(  0.75%)d20.05( 94.53%)
    62. (0.00000) RY*(14) C   7           s(  0.38%)p 0.56(  0.22%)d99.99( 99.40%)
    63. (0.00373) RY*( 1) C   8           s(  0.00%)p 1.00( 91.28%)d 0.10(  8.71%)
                                            0.0000 -0.0003  0.0032 -0.0021  0.0018
                                           -0.0001 -0.0048  0.0090  0.0074 -0.4733
                                           -0.0531 -0.0119  0.8220  0.0998  0.1473
                                           -0.2558 -0.0007  0.0003 -0.0006
    64. (0.00158) RY*( 2) C   8           s( 26.76%)p 2.73( 73.06%)d 0.01(  0.18%)
                                            0.0000  0.0114  0.4550 -0.2459 -0.0045
                                            0.0560  0.8218  0.2279 -0.0005 -0.0047
                                           -0.0010 -0.0008 -0.0025 -0.0100  0.0008
                                           -0.0023 -0.0362  0.0138  0.0181
    65. (0.00012) RY*( 3) C   8           s( 75.90%)p 0.27( 20.65%)d 0.05(  3.46%)
                                            0.0000  0.0047  0.0907  0.8664 -0.0006
                                            0.0178  0.1602  0.1711 -0.0117  0.1346
                                            0.0147 -0.0001  0.1372 -0.3375 -0.0290
                                            0.0368  0.0231 -0.1708  0.0515
    66. (0.00007) RY*( 4) C   8           s( 14.66%)p 5.43( 79.59%)d 0.39(  5.75%)
    67. (0.00000) RY*( 5) C   8           s(  2.64%)p36.85( 97.33%)d 0.01(  0.03%)
    68. (0.00000) RY*( 6) C   8           s(  0.39%)p99.99( 99.61%)d 0.01(  0.00%)
    69. (0.00000) RY*( 7) C   8           s(  0.00%)p 1.00(100.00%)d 0.00(  0.00%)
    70. (0.00000) RY*( 8) C   8           s( 99.53%)p 0.00(  0.44%)d 0.00(  0.03%)
    71. (0.00000) RY*( 9) C   8           s( 74.15%)p 0.35( 25.77%)d 0.00(  0.08%)
    72. (0.00000) RY*(10) C   8           s(  0.01%)p99.99(  2.92%)d99.99( 97.07%)
    73. (0.00000) RY*(11) C   8           s(  0.02%)p99.99(  7.12%)d99.99( 92.87%)
    74. (0.00000) RY*(12) C   8           s(  0.81%)p 1.91(  1.54%)d99.99( 97.65%)
    75. (0.00000) RY*(13) C   8           s(  4.71%)p 0.16(  0.75%)d20.05( 94.53%)
    76. (0.00000) RY*(14) C   8           s(  0.38%)p 0.56(  0.22%)d99.99( 99.40%)
    77. (0.00103) RY*( 1) H   9           s(100.00%)
                                           -0.0024  1.0000
    78. (0.00090) RY*( 1) H  10           s(100.00%)
                                           -0.0023  1.0000
    79. (0.00103) RY*( 1) H  11           s(100.00%)
                                           -0.0024  1.0000
    80. (0.00090) RY*( 1) H  12           s(100.00%)
                                           -0.0023  1.0000
    81. (0.00291) BD*( 1) C   1 - C   2  
                ( 50.00%)   0.7071* C   1 s( 39.11%)p 1.56( 60.85%)d 0.00(  0.04%)
                                            0.0000  0.6248 -0.0275 -0.0037 -0.0001
                                           -0.7786  0.0471  0.0022  0.0002  0.0000
                                            0.0001 -0.0076 -0.0006  0.0010  0.0000
                                            0.0002  0.0000  0.0170 -0.0114
                ( 50.00%)  -0.7071* C   2 s( 39.11%)p 1.56( 60.85%)d 0.00(  0.04%)
                                            0.0000  0.6248 -0.0275 -0.0037 -0.0001
                                            0.7786 -0.0471 -0.0022  0.0002  0.0000
                                            0.0001 -0.0076 -0.0006  0.0010  0.0000
                                           -0.0002  0.0000  0.0170 -0.0114
    82. (0.00003) BD*( 2) C   1 - C   2  
                ( 50.00%)   0.7071* C   1 s(  0.00%)p 1.00( 99.93%)d 0.00(  0.06%)
                ( 50.00%)  -0.7071* C   2 s(  0.00%)p 1.00( 99.93%)d 0.00(  0.06%)
    83. (0.00961) BD*( 1) C   1 - H   3  
                ( 38.85%)   0.6233* C   1 s( 30.44%)p 2.28( 69.50%)d 0.00(  0.06%)
                                            0.0002 -0.5516 -0.0123 -0.0017 -0.0001
                                           -0.4414  0.0153  0.0009 -0.7070 -0.0037
                                           -0.0104 -0.0002  0.0001 -0.0010 -0.0180
                                            0.0000  0.0000  0.0106  0.0136
                ( 61.15%)  -0.7820* H   3 s(100.00%)
                                           -1.0000 -0.0023
    84. (0.00958) BD*( 1) C   1 - H   4  
                ( 38.78%)   0.6228* C   1 s( 30.49%)p 2.28( 69.45%)d 0.00(  0.06%)
                                            0.0002 -0.5520 -0.0122 -0.0018  0.0000
                                           -0.4414  0.0150  0.0010  0.7066  0.0037
                                            0.0103  0.0001  0.0004 -0.0011  0.0180
                                            0.0000  0.0000  0.0106  0.0135
                ( 61.22%)  -0.7824* H   4 s(100.00%)
                                           -1.0000 -0.0023
    85. (0.00961) BD*( 1) C   2 - H   5  
                ( 38.85%)   0.6233* C   2 s( 30.44%)p 2.28( 69.50%)d 0.00(  0.06%)
                                           -0.0002  0.5516  0.0123  0.0017  0.0001
                                           -0.4414  0.0153  0.0009  0.7070  0.0037
                                            0.0104  0.0002 -0.0001  0.0010 -0.0180
                                            0.0000  0.0000 -0.0106 -0.0136
                ( 61.15%)  -0.7820* H   5 s(100.00%)
                                            1.0000  0.0023
    86. (0.00958) BD*( 1) C   2 - H   6  
                ( 38.78%)   0.6228* C   2 s( 30.49%)p 2.28( 69.45%)d 0.00(  0.06%)
                                           -0.0002  0.5520  0.0122  0.0018  0.0000
                                           -0.4414  0.0150  0.0010 -0.7066 -0.0037
                                           -0.0103 -0.0001 -0.0004  0.0011  0.0180
                                            0.0000  0.0000 -0.0106 -0.0135
                ( 61.22%)  -0.7824* H   6 s(100.00%)
                                            1.0000  0.0023
    87. (0.00020) BD*( 1) C   7 - C   8  
                ( 50.00%)   0.7071* C   7 s(  2.62%)p37.11( 97.32%)d 0.02(  0.06%)
                                            0.0000  0.1618 -0.0064 -0.0024  0.0001
                                           -0.2023  0.0117  0.0011  0.8347  0.0435
                                           -0.0139  0.4823  0.0245 -0.0066 -0.0211
                                           -0.0122 -0.0001  0.0047 -0.0024
                ( 50.00%)  -0.7071* C   8 s(  2.62%)p37.11( 97.32%)d 0.02(  0.06%)
                                            0.0000  0.1618 -0.0064 -0.0024  0.0001
                                            0.2023 -0.0117 -0.0011  0.8347  0.0435
                                           -0.0139  0.4823  0.0245 -0.0066  0.0211
                                            0.0122 -0.0001  0.0047 -0.0024
    88. (0.00271) BD*( 2) C   7 - C   8  
                ( 50.00%)   0.7071* C   7 s( 36.50%)p 1.74( 63.46%)d 0.00(  0.04%)
                                            0.0000  0.6035 -0.0269 -0.0030 -0.0001
                                           -0.7518  0.0455  0.0022 -0.2244 -0.0117
                                            0.0037 -0.1293 -0.0063  0.0011  0.0057
                                            0.0032 -0.0012  0.0174 -0.0093
                ( 50.00%)  -0.7071* C   8 s( 36.50%)p 1.74( 63.46%)d 0.00(  0.04%)
                                            0.0000  0.6035 -0.0269 -0.0030 -0.0001
                                            0.7518 -0.0455 -0.0022 -0.2244 -0.0117
                                            0.0037 -0.1293 -0.0063  0.0011 -0.0057
                                           -0.0032 -0.0012  0.0174 -0.0093
    89. (0.00966) BD*( 1) C   7 - H   9  
                ( 38.77%)   0.6227* C   7 s( 30.51%)p 2.28( 69.43%)d 0.00(  0.06%)
                                            0.0002 -0.5522 -0.0123 -0.0018  0.0000
                                           -0.4415  0.0146  0.0008 -0.3536 -0.0021
                                           -0.0053  0.6115  0.0025  0.0107 -0.0090
                                            0.0155  0.0148 -0.0022 -0.0085
                ( 61.23%)  -0.7825* H   9 s(100.00%)
                                           -1.0000 -0.0024
    90. (0.00962) BD*( 1) C   7 - H  10  
                ( 38.89%)   0.6236* C   7 s( 30.42%)p 2.29( 69.52%)d 0.00(  0.06%)
                                            0.0002 -0.5514 -0.0123 -0.0015  0.0000
                                           -0.4414  0.0153  0.0012  0.3535  0.0018
                                            0.0053 -0.6125 -0.0033 -0.0085  0.0090
                                           -0.0156  0.0148 -0.0022 -0.0086
                ( 61.11%)  -0.7817* H  10 s(100.00%)
                                           -1.0000 -0.0023
    91. (0.00966) BD*( 1) C   8 - H  11  
                ( 38.77%)   0.6227* C   8 s( 30.51%)p 2.28( 69.43%)d 0.00(  0.06%)
                                           -0.0002  0.5522  0.0123  0.0018  0.0000
                                           -0.4415  0.0146  0.0008  0.3536  0.0021
                                            0.0053 -0.6115 -0.0025 -0.0107 -0.0090
                                            0.0155 -0.0148  0.0022  0.0085
                ( 61.23%)  -0.7825* H  11 s(100.00%)
                                            1.0000  0.0024
    92. (0.00962) BD*( 1) C   8 - H  12  
                ( 38.89%)   0.6236* C   8 s( 30.42%)p 2.29( 69.52%)d 0.00(  0.06%)
                                           -0.0002  0.5514  0.0123  0.0015  0.0000
                                           -0.4414  0.0153  0.0012 -0.3535 -0.0018
                                           -0.0053  0.6125  0.0033  0.0085  0.0090
                                           -0.0156 -0.0148  0.0022  0.0086
                ( 61.11%)  -0.7817* H  12 s(100.00%)
                                            1.0000  0.0023


 NHO Directionality and "Bond Bending" (deviations from line of nuclear centers)

         [Thresholds for printing:  angular deviation  >  1.0 degree]
                                    hybrid p-character > 25.0%
                                    orbital occupancy  >  0.10e

                                Line of Centers        Hybrid 1              Hybrid 2
                                ---------------  -------------------   ------------------
                NBO               Theta   Phi    Theta   Phi    Dev    Theta   Phi    Dev
 ========================================================================================
     2. BD (   2) C   1 - C   2    90.0  180.0     0.3  179.9  89.7      0.3    0.1  89.7
     7. BD (   1) C   7 - C   8    90.0  180.0    60.5  102.4  79.3     60.5   77.6  79.3
     8. BD (   2) C   7 - C   8    90.0  180.0   100.3  198.3  20.9    100.3  341.7  20.9


 Second Order Perturbation Theory Analysis of Fock Matrix in NBO Basis

     Threshold for printing:   0.50 kcal/mol
    (Intermolecular threshold: 0.05 kcal/mol)
                                                                              E(2)  E(j)-E(i) F(i,j)
         Donor NBO (i)                     Acceptor NBO (j)                 kcal/mol   a.u.    a.u. 
 ===================================================================================================

 within unit  1
   1. BD (   1) C   1 - C   2        / 83. BD*(   1) C   1 - H   3            0.68    1.20    0.026
   1. BD (   1) C   1 - C   2        / 84. BD*(   1) C   1 - H   4            0.68    1.21    0.026
   1. BD (   1) C   1 - C   2        / 85. BD*(   1) C   2 - H   5            0.68    1.20    0.026
   1. BD (   1) C   1 - C   2        / 86. BD*(   1) C   2 - H   6            0.68    1.21    0.026
   3. BD (   1) C   1 - H   3        / 31. RY*(   1) C   2                    1.43    1.56    0.042
   3. BD (   1) C   1 - H   3        / 32. RY*(   2) C   2                    0.65    1.09    0.024
   3. BD (   1) C   1 - H   3        / 81. BD*(   1) C   1 - C   2            0.72    1.16    0.026
   3. BD (   1) C   1 - H   3        / 86. BD*(   1) C   2 - H   6            4.32    0.99    0.058
   4. BD (   1) C   1 - H   4        / 31. RY*(   1) C   2                    1.42    1.56    0.042
   4. BD (   1) C   1 - H   4        / 32. RY*(   2) C   2                    0.65    1.09    0.024
   4. BD (   1) C   1 - H   4        / 81. BD*(   1) C   1 - C   2            0.73    1.16    0.026
   4. BD (   1) C   1 - H   4        / 85. BD*(   1) C   2 - H   5            4.33    0.99    0.058
   5. BD (   1) C   2 - H   5        / 17. RY*(   1) C   1                    1.43    1.56    0.042
   5. BD (   1) C   2 - H   5        / 18. RY*(   2) C   1                    0.65    1.09    0.024
   5. BD (   1) C   2 - H   5        / 81. BD*(   1) C   1 - C   2            0.72    1.16    0.026
   5. BD (   1) C   2 - H   5        / 84. BD*(   1) C   1 - H   4            4.32    0.99    0.058
   6. BD (   1) C   2 - H   6        / 17. RY*(   1) C   1                    1.42    1.56    0.042
   6. BD (   1) C   2 - H   6        / 18. RY*(   2) C   1                    0.65    1.09    0.024
   6. BD (   1) C   2 - H   6        / 81. BD*(   1) C   1 - C   2            0.73    1.16    0.026
   6. BD (   1) C   2 - H   6        / 83. BD*(   1) C   1 - H   3            4.33    0.99    0.058
  13. CR (   1) C   1                / 32. RY*(   2) C   2                    2.78   10.63    0.154
  13. CR (   1) C   1                / 81. BD*(   1) C   1 - C   2            0.71   10.70    0.078
  13. CR (   1) C   1                / 85. BD*(   1) C   2 - H   5            0.67   10.53    0.075
  13. CR (   1) C   1                / 86. BD*(   1) C   2 - H   6            0.67   10.53    0.075
  14. CR (   1) C   2                / 18. RY*(   2) C   1                    2.78   10.63    0.154
  14. CR (   1) C   2                / 81. BD*(   1) C   1 - C   2            0.71   10.70    0.078
  14. CR (   1) C   2                / 83. BD*(   1) C   1 - H   3            0.67   10.53    0.075
  14. CR (   1) C   2                / 84. BD*(   1) C   1 - H   4            0.67   10.53    0.075

 from unit  1 to unit  2
       None above threshold

 from unit  2 to unit  1
       None above threshold

 within unit  2
   8. BD (   2) C   7 - C   8        / 89. BD*(   1) C   7 - H   9            0.66    1.17    0.025
   8. BD (   2) C   7 - C   8        / 90. BD*(   1) C   7 - H  10            0.65    1.17    0.025
   8. BD (   2) C   7 - C   8        / 91. BD*(   1) C   8 - H  11            0.66    1.17    0.025
   8. BD (   2) C   7 - C   8        / 92. BD*(   1) C   8 - H  12            0.65    1.17    0.025
   9. BD (   1) C   7 - H   9        / 63. RY*(   1) C   8                    1.43    1.56    0.042
   9. BD (   1) C   7 - H   9        / 64. RY*(   2) C   8                    0.66    1.08    0.024
   9. BD (   1) C   7 - H   9        / 88. BD*(   2) C   7 - C   8            0.71    1.12    0.025
   9. BD (   1) C   7 - H   9        / 92. BD*(   1) C   8 - H  12            4.32    0.99    0.058
  10. BD (   1) C   7 - H  10        / 63. RY*(   1) C   8                    1.42    1.56    0.042
  10. BD (   1) C   7 - H  10        / 64. RY*(   2) C   8                    0.65    1.08    0.024
  10. BD (   1) C   7 - H  10        / 88. BD*(   2) C   7 - C   8            0.69    1.12    0.025
  10. BD (   1) C   7 - H  10        / 91. BD*(   1) C   8 - H  11            4.31    0.99    0.058
  11. BD (   1) C   8 - H  11        / 49. RY*(   1) C   7                    1.43    1.56    0.042
  11. BD (   1) C   8 - H  11        / 50. RY*(   2) C   7                    0.66    1.08    0.024
  11. BD (   1) C   8 - H  11        / 88. BD*(   2) C   7 - C   8            0.71    1.12    0.025
  11. BD (   1) C   8 - H  11        / 90. BD*(   1) C   7 - H  10            4.32    0.99    0.058
  12. BD (   1) C   8 - H  12        / 49. RY*(   1) C   7                    1.42    1.56    0.042
  12. BD (   1) C   8 - H  12        / 50. RY*(   2) C   7                    0.65    1.08    0.024
  12. BD (   1) C   8 - H  12        / 88. BD*(   2) C   7 - C   8            0.69    1.12    0.025
  12. BD (   1) C   8 - H  12        / 89. BD*(   1) C   7 - H   9            4.31    0.99    0.058
  15. CR (   1) C   7                / 64. RY*(   2) C   8                    2.75   10.63    0.153
  15. CR (   1) C   7                / 88. BD*(   2) C   7 - C   8            0.66   10.66    0.075
  15. CR (   1) C   7                / 91. BD*(   1) C   8 - H  11            0.67   10.53    0.075
  15. CR (   1) C   7                / 92. BD*(   1) C   8 - H  12            0.67   10.53    0.075
  16. CR (   1) C   8                / 50. RY*(   2) C   7                    2.75   10.63    0.153
  16. CR (   1) C   8                / 88. BD*(   2) C   7 - C   8            0.66   10.66    0.075
  16. CR (   1) C   8                / 89. BD*(   1) C   7 - H   9            0.67   10.53    0.075
  16. CR (   1) C   8                / 90. BD*(   1) C   7 - H  10            0.67   10.53    0.075


 Natural Bond Orbitals (Summary):

                                                            Principal Delocalizations
           NBO                        Occupancy    Energy   (geminal,vicinal,remote)
 ====================================================================================
 Molecular unit  1  (C2H4)
     1. BD (   1) C   1 - C   2          1.99761    -0.74064  84(g),86(g),83(g),85(g)
     2. BD (   2) C   1 - C   2          1.99944    -0.27641   
     3. BD (   1) C   1 - H   3          1.98707    -0.52439  86(v),31(v),81(g),32(v)
     4. BD (   1) C   1 - H   4          1.98701    -0.52393  85(v),31(v),81(g),32(v)
     5. BD (   1) C   2 - H   5          1.98707    -0.52439  84(v),17(v),81(g),18(v)
     6. BD (   1) C   2 - H   6          1.98701    -0.52393  83(v),17(v),81(g),18(v)
    13. CR (   1) C   1                  1.99927   -10.06633  32(v),81(g),85(v),86(v)
    14. CR (   1) C   2                  1.99927   -10.06633  18(v),81(g),83(v),84(v)
    17. RY*(   1) C   1                  0.00372     1.03580   
    18. RY*(   2) C   1                  0.00156     0.56166   
    19. RY*(   3) C   1                  0.00013     0.46632   
    20. RY*(   4) C   1                  0.00006     0.45691   
    21. RY*(   5) C   1                  0.00001     0.24586   
    22. RY*(   6) C   1                  0.00000     3.91245   
    23. RY*(   7) C   1                  0.00000     0.32083   
    24. RY*(   8) C   1                  0.00000     0.74667   
    25. RY*(   9) C   1                  0.00000     0.70873   
    26. RY*(  10) C   1                  0.00000     2.06988   
    27. RY*(  11) C   1                  0.00000     1.89825   
    28. RY*(  12) C   1                  0.00000     1.67704   
    29. RY*(  13) C   1                  0.00000     2.24181   
    30. RY*(  14) C   1                  0.00001     2.04919   
    31. RY*(   1) C   2                  0.00372     1.03580   
    32. RY*(   2) C   2                  0.00156     0.56166   
    33. RY*(   3) C   2                  0.00013     0.46632   
    34. RY*(   4) C   2                  0.00006     0.45691   
    35. RY*(   5) C   2                  0.00001     0.24586   
    36. RY*(   6) C   2                  0.00000     3.91245   
    37. RY*(   7) C   2                  0.00000     0.32083   
    38. RY*(   8) C   2                  0.00000     0.74667   
    39. RY*(   9) C   2                  0.00000     0.70873   
    40. RY*(  10) C   2                  0.00000     2.06988   
    41. RY*(  11) C   2                  0.00000     1.89825   
    42. RY*(  12) C   2                  0.00000     1.67704   
    43. RY*(  13) C   2                  0.00000     2.24181   
    44. RY*(  14) C   2                  0.00001     2.04919   
    45. RY*(   1) H   3                  0.00088     0.61355   
    46. RY*(   1) H   4                  0.00088     0.61414   
    47. RY*(   1) H   5                  0.00088     0.61355   
    48. RY*(   1) H   6                  0.00088     0.61414   
    81. BD*(   1) C   1 - C   2          0.00291     0.63384   
    82. BD*(   2) C   1 - C   2          0.00003     0.02844   
    83. BD*(   1) C   1 - H   3          0.00961     0.46354   
    84. BD*(   1) C   1 - H   4          0.00958     0.46458   
    85. BD*(   1) C   2 - H   5          0.00961     0.46354   
    86. BD*(   1) C   2 - H   6          0.00958     0.46458   
       -------------------------------
              Total Lewis   15.94375  ( 99.6510%)
        Valence non-Lewis    0.04133  (  0.2583%)
        Rydberg non-Lewis    0.01452  (  0.0907%)
       -------------------------------
            Total unit  1   15.99959  (100.0000%)
           Charge unit  1    0.00041

 Molecular unit  2  (C2H4)
     7. BD (   1) C   7 - C   8          1.99975    -0.30453   
     8. BD (   2) C   7 - C   8          1.99773    -0.70602  89(g),91(g),90(g),92(g)
     9. BD (   1) C   7 - H   9          1.98695    -0.52062  92(v),63(v),88(g),64(v)
    10. BD (   1) C   7 - H  10          1.98707    -0.52130  91(v),63(v),88(g),64(v)
    11. BD (   1) C   8 - H  11          1.98695    -0.52062  90(v),49(v),88(g),50(v)
    12. BD (   1) C   8 - H  12          1.98707    -0.52130  89(v),49(v),88(g),50(v)
    15. CR (   1) C   7                  1.99927   -10.06321  64(v),92(v),91(v),88(g)
    16. CR (   1) C   8                  1.99927   -10.06321  50(v),90(v),89(v),88(g)
    49. RY*(   1) C   7                  0.00373     1.03715   
    50. RY*(   2) C   7                  0.00158     0.56334   
    51. RY*(   3) C   7                  0.00012     0.68590   
    52. RY*(   4) C   7                  0.00007     0.38628   
    53. RY*(   5) C   7                  0.00000     0.27576   
    54. RY*(   6) C   7                  0.00000     0.54133   
    55. RY*(   7) C   7                  0.00000     0.32995   
    56. RY*(   8) C   7                  0.00000     3.89130   
    57. RY*(   9) C   7                  0.00000     0.77508   
    58. RY*(  10) C   7                  0.00000     1.93277   
    59. RY*(  11) C   7                  0.00000     2.00475   
    60. RY*(  12) C   7                  0.00000     1.91586   
    61. RY*(  13) C   7                  0.00000     2.14077   
    62. RY*(  14) C   7                  0.00000     1.90356   
    63. RY*(   1) C   8                  0.00373     1.03715   
    64. RY*(   2) C   8                  0.00158     0.56334   
    65. RY*(   3) C   8                  0.00012     0.68590   
    66. RY*(   4) C   8                  0.00007     0.38628   
    67. RY*(   5) C   8                  0.00000     0.27576   
    68. RY*(   6) C   8                  0.00000     0.54133   
    69. RY*(   7) C   8                  0.00000     0.32995   
    70. RY*(   8) C   8                  0.00000     3.89130   
    71. RY*(   9) C   8                  0.00000     0.77508   
    72. RY*(  10) C   8                  0.00000     1.93277   
    73. RY*(  11) C   8                  0.00000     2.00475   
    74. RY*(  12) C   8                  0.00000     1.91586   
    75. RY*(  13) C   8                  0.00000     2.14077   
    76. RY*(  14) C   8                  0.00000     1.90356   
    77. RY*(   1) H   9                  0.00103     0.61880   
    78. RY*(   1) H  10                  0.00090     0.61517   
    79. RY*(   1) H  11                  0.00103     0.61880   
    80. RY*(   1) H  12                  0.00090     0.61517   
    87. BD*(   1) C   7 - C   8          0.00020     0.07234   
    88. BD*(   2) C   7 - C   8          0.00271     0.59615   
    89. BD*(   1) C   7 - H   9          0.00966     0.46864   
    90. BD*(   1) C   7 - H  10          0.00962     0.46652   
    91. BD*(   1) C   8 - H  11          0.00966     0.46864   
    92. BD*(   1) C   8 - H  12          0.00962     0.46652   
       -------------------------------
              Total Lewis   15.94405  ( 99.6478%)
        Valence non-Lewis    0.04146  (  0.2591%)
        Rydberg non-Lewis    0.01489  (  0.0930%)
       -------------------------------
            Total unit  2   16.00040  (100.0000%)
           Charge unit  2   -0.00040
 1\1\GINC-RSWPRH01\SP\RB3LYP\6-31+G(d)\C4H8\ROOT\18-Sep-2016\0\\# B3LYP
 /6-31+G* int=ultrafine nosymm pop=nboread\\A_B_60\\0,1\C,0,0.672749,0.
 ,0.\C,0,-0.672749,0.,0.\H,0,1.242623,0.934806,0.\H,0,1.242623,-0.93480
 6,0.\H,0,-1.242623,0.934806,0.\H,0,-1.242623,-0.934806,0.\C,0,0.672749
 ,0.,5.\C,0,-0.672749,0.,5.\H,0,1.242623,0.467403,4.190434\H,0,1.242623
 ,-0.467403,5.809566\H,0,-1.242623,0.467403,4.190434\H,0,-1.242623,-0.4
 67403,5.809566\\Version=ES64L-G09RevD.01\HF=-157.1859317\RMSD=4.017e-0
 9\Dipole=0.,-0.0062777,-0.0126848\Quadrupole=1.91571,-0.1139204,-1.801
 7896,0.,0.,-1.1932213\PG=CS [X(C4H8)]\\@


 TERENCE, THIS IS STUPID STUFF:
 YOU EAT YOUR VICTUALS FAST ENOUGH;
 THERE CAN'T BE MUCH AMISS, 'TIS CLEAR
 TO SEE THE RATE YOU DRINK YOUR BEER.
 BUT OH, GOOD LORD, THE VERSE YOU MAKE,
 IT GIVES A CHAP THE BELLY-ACHE.
 THE COW, THE OLD COW, SHE IS DEAD;
 IT SLEEPS WELL, THE HORNED HEAD:
 WE POOR LADS, 'TIS OUR TURN NOW
 TO HEAR SUCH TUNES AS KILLED THE COW.
 PRETTY FRIENDSHIP 'TIS TO RHYME
 YOUR FRIENDS TO DEATH BEFORE THEIR TIME.
 MOPING, MELANCHOLY MAD:
 COME PIPE A TUNE TO DANCE TO, LAD.

     -- A. E. HOUSMAN
 Job cpu time:       0 days  0 hours  0 minutes 50.3 seconds.
 File lengths (MBytes):  RWF=      5 Int=      0 D2E=      0 Chk=      1 Scr=      1
 Normal termination of Gaussian 09 at Sun Sep 18 08:51:17 2016.
