 Entering Gaussian System, Link 0=g09
 Input=A_B_15.gjf
 Output=A_B_15.log
 Initial command:
 /opt/share/GAUSSIAN/v09-D.01.app/g09/l1.exe "/tmp/Gau-11381.inp" -scrdir="/tmp/"
 Entering Link 1 = /opt/share/GAUSSIAN/v09-D.01.app/g09/l1.exe PID=     11408.
  
 Copyright (c) 1988,1990,1992,1993,1995,1998,2003,2009,2013,
            Gaussian, Inc.  All Rights Reserved.
  
 This is part of the Gaussian(R) 09 program.  It is based on
 the Gaussian(R) 03 system (copyright 2003, Gaussian, Inc.),
 the Gaussian(R) 98 system (copyright 1998, Gaussian, Inc.),
 the Gaussian(R) 94 system (copyright 1995, Gaussian, Inc.),
 the Gaussian 92(TM) system (copyright 1992, Gaussian, Inc.),
 the Gaussian 90(TM) system (copyright 1990, Gaussian, Inc.),
 the Gaussian 88(TM) system (copyright 1988, Gaussian, Inc.),
 the Gaussian 86(TM) system (copyright 1986, Carnegie Mellon
 University), and the Gaussian 82(TM) system (copyright 1983,
 Carnegie Mellon University). Gaussian is a federally registered
 trademark of Gaussian, Inc.
  
 This software contains proprietary and confidential information,
 including trade secrets, belonging to Gaussian, Inc.
  
 This software is provided under written license and may be
 used, copied, transmitted, or stored only in accord with that
 written license.
  
 The following legend is applicable only to US Government
 contracts under FAR:
  
                    RESTRICTED RIGHTS LEGEND
  
 Use, reproduction and disclosure by the US Government is
 subject to restrictions as set forth in subparagraphs (a)
 and (c) of the Commercial Computer Software - Restricted
 Rights clause in FAR 52.227-19.
  
 Gaussian, Inc.
 340 Quinnipiac St., Bldg. 40, Wallingford CT 06492
  
  
 ---------------------------------------------------------------
 Warning -- This program may not be used in any manner that
 competes with the business of Gaussian, Inc. or will provide
 assistance to any competitor of Gaussian, Inc.  The licensee
 of this program is prohibited from giving any competitor of
 Gaussian, Inc. access to this program.  By using this program,
 the user acknowledges that Gaussian, Inc. is engaged in the
 business of creating and licensing software in the field of
 computational chemistry and represents and warrants to the
 licensee that it is not a competitor of Gaussian, Inc. and that
 it will not use this program in any manner prohibited above.
 ---------------------------------------------------------------
  

 Cite this work as:
 Gaussian 09, Revision D.01,
 M. J. Frisch, G. W. Trucks, H. B. Schlegel, G. E. Scuseria, 
 M. A. Robb, J. R. Cheeseman, G. Scalmani, V. Barone, B. Mennucci, 
 G. A. Petersson, H. Nakatsuji, M. Caricato, X. Li, H. P. Hratchian, 
 A. F. Izmaylov, J. Bloino, G. Zheng, J. L. Sonnenberg, M. Hada, 
 M. Ehara, K. Toyota, R. Fukuda, J. Hasegawa, M. Ishida, T. Nakajima, 
 Y. Honda, O. Kitao, H. Nakai, T. Vreven, J. A. Montgomery, Jr., 
 J. E. Peralta, F. Ogliaro, M. Bearpark, J. J. Heyd, E. Brothers, 
 K. N. Kudin, V. N. Staroverov, T. Keith, R. Kobayashi, J. Normand, 
 K. Raghavachari, A. Rendell, J. C. Burant, S. S. Iyengar, J. Tomasi, 
 M. Cossi, N. Rega, J. M. Millam, M. Klene, J. E. Knox, J. B. Cross, 
 V. Bakken, C. Adamo, J. Jaramillo, R. Gomperts, R. E. Stratmann, 
 O. Yazyev, A. J. Austin, R. Cammi, C. Pomelli, J. W. Ochterski, 
 R. L. Martin, K. Morokuma, V. G. Zakrzewski, G. A. Voth, 
 P. Salvador, J. J. Dannenberg, S. Dapprich, A. D. Daniels, 
 O. Farkas, J. B. Foresman, J. V. Ortiz, J. Cioslowski, 
 and D. J. Fox, Gaussian, Inc., Wallingford CT, 2013.
 
 ******************************************
 Gaussian 09:  ES64L-G09RevD.01 24-Apr-2013
                18-Sep-2016 
 ******************************************
 % mem=4GB
 % nprocshared=4
 Will use up to    4 processors via shared memory.
 % chk=A_B_15.chk
 ------------------------------------------------
 # B3LYP/6-31+G* int=ultrafine nosymm pop=nboread
 ------------------------------------------------
 1/38=1/1;
 2/12=2,15=1,17=6,18=5,40=1/2;
 3/5=1,6=6,7=11,11=2,16=1,25=1,30=1,74=-5,75=-5/1,2,3;
 4//1;
 5/5=2,38=5/2;
 6/7=2,8=2,9=2,10=2,28=1,40=2/1,7;
 99/5=1,9=1/99;
 ------
 A_B_15
 ------
 Symbolic Z-matrix:
 Charge =  0 Multiplicity = 1
 C                     0.67275   0.        0. 
 C                    -0.67275   0.        0. 
 H                     1.24262   0.93481   0. 
 H                     1.24262  -0.93481   0. 
 H                    -1.24262   0.93481   0. 
 H                    -1.24262  -0.93481   0. 
 C                     0.67275   0.        5. 
 C                    -0.67275   0.        5. 
 H                     1.24262   0.90295   4.75805 
 H                     1.24262  -0.90295   5.24195 
 H                    -1.24262   0.90295   4.75805 
 H                    -1.24262  -0.90295   5.24195 
 
                          Input orientation:                          
 ---------------------------------------------------------------------
 Center     Atomic      Atomic             Coordinates (Angstroms)
 Number     Number       Type             X           Y           Z
 ---------------------------------------------------------------------
      1          6           0        0.672749    0.000000    0.000000
      2          6           0       -0.672749    0.000000    0.000000
      3          1           0        1.242623    0.934806    0.000000
      4          1           0        1.242623   -0.934806    0.000000
      5          1           0       -1.242623    0.934806    0.000000
      6          1           0       -1.242623   -0.934806    0.000000
      7          6           0        0.672749    0.000000    5.000000
      8          6           0       -0.672749    0.000000    5.000000
      9          1           0        1.242623    0.902953    4.758054
     10          1           0        1.242623   -0.902953    5.241946
     11          1           0       -1.242623    0.902953    4.758054
     12          1           0       -1.242623   -0.902953    5.241946
 ---------------------------------------------------------------------
                    Distance matrix (angstroms):
                    1          2          3          4          5
     1  C    0.000000
     2  C    1.345498   0.000000
     3  H    1.094814   2.131317   0.000000
     4  H    1.094814   2.131317   1.869612   0.000000
     5  H    2.131317   1.094814   2.485246   3.109967   0.000000
     6  H    2.131317   1.094814   3.109967   2.485246   1.869612
     7  C    5.000000   5.177873   5.118459   5.118459   5.435302
     8  C    5.177873   5.000000   5.435302   5.435302   5.118459
     9  H    4.876388   5.207980   4.758161   5.100631   5.368104
    10  H    5.349587   5.653492   5.554760   5.242043   6.085376
    11  H    5.207980   4.876388   5.368104   5.673877   4.758161
    12  H    5.653492   5.349587   6.085376   5.801333   5.554760
                    6          7          8          9         10
     6  H    0.000000
     7  C    5.435302   0.000000
     8  C    5.118459   1.345498   0.000000
     9  H    5.673877   1.094814   2.131317   0.000000
    10  H    5.801333   1.094814   2.131317   1.869612   0.000000
    11  H    5.100631   2.131317   1.094814   2.485246   3.109967
    12  H    5.242043   2.131317   1.094814   3.109967   2.485246
                   11         12
    11  H    0.000000
    12  H    1.869612   0.000000
 Symmetry turned off by external request.
 Stoichiometry    C4H8
 Framework group  CS[X(C4H8)]
 Deg. of freedom    15
 Full point group                 CS      NOp   2
 Rotational constants (GHZ):     12.3319427      1.4138973      1.3133433
 Standard basis: 6-31+G(d) (6D, 7F)
    92 basis functions,   160 primitive gaussians,    92 cartesian basis functions
    16 alpha electrons       16 beta electrons
       nuclear repulsion energy        92.2907976536 Hartrees.
 NAtoms=   12 NActive=   12 NUniq=   12 SFac= 1.00D+00 NAtFMM=   60 NAOKFM=F Big=F
 Integral buffers will be    131072 words long.
 Raffenetti 2 integral format.
 Two-electron integral symmetry is turned off.
 One-electron integrals computed using PRISM.
 NBasis=    92 RedAO= T EigKep=  1.46D-04  NBF=    92
 NBsUse=    92 1.00D-06 EigRej= -1.00D+00 NBFU=    92
 ExpMin= 4.38D-02 ExpMax= 3.05D+03 ExpMxC= 4.57D+02 IAcc=3 IRadAn=         5 AccDes= 0.00D+00
 Harris functional with IExCor=  402 and IRadAn=       5 diagonalized for initial guess.
 HarFok:  IExCor=  402 AccDes= 0.00D+00 IRadAn=         5 IDoV= 1 UseB2=F ITyADJ=14
 ICtDFT=  3500011 ScaDFX=  1.000000  1.000000  1.000000  1.000000
 FoFCou: FMM=F IPFlag=           0 FMFlag=      100000 FMFlg1=           0
         NFxFlg=           0 DoJE=T BraDBF=F KetDBF=T FulRan=T
         wScrn=  0.000000 ICntrl=     500 IOpCl=  0 I1Cent=   200000004 NGrid=           0
         NMat0=    1 NMatS0=      1 NMatT0=    0 NMatD0=    1 NMtDS0=    0 NMtDT0=    0
 Symmetry not used in FoFCou.
 Keep R1 ints in memory in canonical form, NReq=10115209.
 Requested convergence on RMS density matrix=1.00D-08 within 128 cycles.
 Requested convergence on MAX density matrix=1.00D-06.
 Requested convergence on             energy=1.00D-06.
 No special actions if energy rises.
 SCF Done:  E(RB3LYP) =  -157.185598431     A.U. after    9 cycles
            NFock=  9  Conv=0.40D-08     -V/T= 2.0119

 **********************************************************************

            Population analysis using the SCF density.

 **********************************************************************

 Alpha  occ. eigenvalues --  -10.19654 -10.19629 -10.19574 -10.19548  -0.75992
 Alpha  occ. eigenvalues --   -0.75962  -0.58250  -0.58220  -0.47069  -0.47037
 Alpha  occ. eigenvalues --   -0.42068  -0.42038  -0.36130  -0.36099  -0.27548
 Alpha  occ. eigenvalues --   -0.27145
 Alpha virt. eigenvalues --   -0.01263  -0.00255   0.01710   0.02580   0.03609
 Alpha virt. eigenvalues --    0.04070   0.04567   0.05940   0.07569   0.08106
 Alpha virt. eigenvalues --    0.08183   0.09610   0.09993   0.11647   0.13213
 Alpha virt. eigenvalues --    0.15256   0.15777   0.16978   0.17383   0.19013
 Alpha virt. eigenvalues --    0.19831   0.24022   0.26317   0.30204   0.34211
 Alpha virt. eigenvalues --    0.34749   0.35146   0.36613   0.57795   0.59022
 Alpha virt. eigenvalues --    0.65886   0.66421   0.68255   0.70788   0.72808
 Alpha virt. eigenvalues --    0.73285   0.76226   0.77851   0.84075   0.86387
 Alpha virt. eigenvalues --    0.89913   0.90962   0.93411   0.94791   0.96242
 Alpha virt. eigenvalues --    1.00065   1.03735   1.07923   1.16713   1.17190
 Alpha virt. eigenvalues --    1.22181   1.22289   1.45005   1.45143   1.54128
 Alpha virt. eigenvalues --    1.54231   1.81873   1.81915   1.88769   1.88808
 Alpha virt. eigenvalues --    2.00201   2.00290   2.11030   2.11130   2.29663
 Alpha virt. eigenvalues --    2.29930   2.37252   2.37417   2.66709   2.66752
 Alpha virt. eigenvalues --    2.70124   2.70987   4.11769   4.12350   4.25284
 Alpha virt. eigenvalues --    4.25549
          Condensed to atoms (all electrons):
               1          2          3          4          5          6
     1  C    5.007472   0.669083   0.383041   0.381974  -0.037227  -0.035878
     2  C    0.669083   5.007472  -0.037227  -0.035878   0.383041   0.381974
     3  H    0.383041  -0.037227   0.508858  -0.033294  -0.006687   0.003967
     4  H    0.381974  -0.035878  -0.033294   0.507576   0.003967  -0.006669
     5  H   -0.037227   0.383041  -0.006687   0.003967   0.508858  -0.033294
     6  H   -0.035878   0.381974   0.003967  -0.006669  -0.033294   0.507576
     7  C   -0.002766  -0.002083  -0.000003   0.000028   0.000055   0.000052
     8  C   -0.002083  -0.002766   0.000055   0.000052  -0.000003   0.000028
     9  H    0.000162  -0.000077  -0.000001   0.000000   0.000000   0.000000
    10  H   -0.000021   0.000094   0.000000   0.000000   0.000000   0.000000
    11  H   -0.000077   0.000162   0.000000   0.000000  -0.000001   0.000000
    12  H    0.000094  -0.000021   0.000000   0.000000   0.000000   0.000000
               7          8          9         10         11         12
     1  C   -0.002766  -0.002083   0.000162  -0.000021  -0.000077   0.000094
     2  C   -0.002083  -0.002766  -0.000077   0.000094   0.000162  -0.000021
     3  H   -0.000003   0.000055  -0.000001   0.000000   0.000000   0.000000
     4  H    0.000028   0.000052   0.000000   0.000000   0.000000   0.000000
     5  H    0.000055  -0.000003   0.000000   0.000000  -0.000001   0.000000
     6  H    0.000052   0.000028   0.000000   0.000000   0.000000   0.000000
     7  C    5.004806   0.670770   0.380758   0.383729  -0.034676  -0.037770
     8  C    0.670770   5.004806  -0.034676  -0.037770   0.380758   0.383729
     9  H    0.380758  -0.034676   0.508192  -0.033300  -0.006698   0.003969
    10  H    0.383729  -0.037770  -0.033300   0.508517   0.003969  -0.006685
    11  H   -0.034676   0.380758  -0.006698   0.003969   0.508192  -0.033300
    12  H   -0.037770   0.383729   0.003969  -0.006685  -0.033300   0.508517
 Mulliken charges:
               1
     1  C   -0.363773
     2  C   -0.363773
     3  H    0.181290
     4  H    0.182244
     5  H    0.181290
     6  H    0.182244
     7  C   -0.362899
     8  C   -0.362899
     9  H    0.181672
    10  H    0.181467
    11  H    0.181672
    12  H    0.181467
 Sum of Mulliken charges =   0.00000
 Mulliken charges with hydrogens summed into heavy atoms:
               1
     1  C   -0.000240
     2  C   -0.000240
     7  C    0.000240
     8  C    0.000240
 Electronic spatial extent (au):  <R**2>=           1597.6277
 Charge=              0.0000 electrons
 Dipole moment (field-independent basis, Debye):
    X=              0.0000    Y=             -0.0076    Z=             -0.0018  Tot=              0.0078
 Quadrupole moment (field-independent basis, Debye-Ang):
   XX=            -24.9156   YY=            -25.0956   ZZ=            -32.4855
   XY=              0.0000   XZ=              0.0000   YZ=             -0.9208
 Traceless Quadrupole moment (field-independent basis, Debye-Ang):
   XX=              2.5833   YY=              2.4033   ZZ=             -4.9866
   XY=              0.0000   XZ=              0.0000   YZ=             -0.9208
 Octapole moment (field-independent basis, Debye-Ang**2):
  XXX=              0.0000  YYY=             -0.0173  ZZZ=           -241.7757  XYY=              0.0000
  XXY=             -0.0127  XXZ=            -62.2918  XZZ=              0.0000  YZZ=             -9.2489
  YYZ=            -63.3633  XYZ=              0.0000
 Hexadecapole moment (field-independent basis, Debye-Ang**3):
 XXXX=           -144.0587 YYYY=            -57.3495 ZZZZ=          -2455.7984 XXXY=              0.0000
 XXXZ=              0.0000 YYYX=              0.0000 YYYZ=              0.3851 ZZZX=              0.0000
 ZZZY=            -68.3625 XXYY=            -28.7656 XXZZ=           -345.6262 YYZZ=           -335.4422
 XXYZ=             -0.6182 YYXZ=              0.0000 ZZXY=              0.0000
 N-N= 9.229079765360D+01 E-N=-5.469812864232D+02  KE= 1.553420866790D+02
 ******************************Gaussian NBO Version 3.1******************************
             N A T U R A L   A T O M I C   O R B I T A L   A N D
          N A T U R A L   B O N D   O R B I T A L   A N A L Y S I S
 ******************************Gaussian NBO Version 3.1******************************

       /RESON  / : Allow strongly delocalized NBO set
       /FAO    / : Write the AO Fock matrix to LFN 44
       /SAO    / : Write the AO overlap matrix to LFN 43

 Analyzing the SCF density

 Job title: A_B_15                                                          

 Storage needed:     25928 in NPA,     34295 in NBO ( 536870096 available)


 NATURAL POPULATIONS:  Natural atomic orbital occupancies 
                                                          
   NAO  Atom  No  lang   Type(AO)    Occupancy      Energy
 ----------------------------------------------------------
     1    C    1  S      Cor( 1S)     1.99926     -10.06341
     2    C    1  S      Val( 2S)     1.08269      -0.24986
     3    C    1  S      Ryd( 4S)     0.00147       0.85255
     4    C    1  S      Ryd( 3S)     0.00024       0.62312
     5    C    1  S      Ryd( 5S)     0.00000       3.94735
     6    C    1  px     Val( 2p)     1.13201      -0.05412
     7    C    1  px     Ryd( 4p)     0.00374       0.41965
     8    C    1  px     Ryd( 3p)     0.00010       0.34485
     9    C    1  py     Val( 2p)     1.21715      -0.05175
    10    C    1  py     Ryd( 4p)     0.00332       0.82972
    11    C    1  py     Ryd( 3p)     0.00030       0.35985
    12    C    1  pz     Val( 2p)     0.99635      -0.11641
    13    C    1  pz     Ryd( 4p)     0.00270       0.44009
    14    C    1  pz     Ryd( 3p)     0.00028       0.39264
    15    C    1  dxy    Ryd( 3d)     0.00104       2.24766
    16    C    1  dxz    Ryd( 3d)     0.00063       1.90439
    17    C    1  dyz    Ryd( 3d)     0.00000       1.67996
    18    C    1  dx2y2  Ryd( 3d)     0.00059       2.29745
    19    C    1  dz2    Ryd( 3d)     0.00057       2.10708

    20    C    2  S      Cor( 1S)     1.99926     -10.06341
    21    C    2  S      Val( 2S)     1.08269      -0.24986
    22    C    2  S      Ryd( 4S)     0.00147       0.85255
    23    C    2  S      Ryd( 3S)     0.00024       0.62312
    24    C    2  S      Ryd( 5S)     0.00000       3.94735
    25    C    2  px     Val( 2p)     1.13201      -0.05412
    26    C    2  px     Ryd( 4p)     0.00374       0.41965
    27    C    2  px     Ryd( 3p)     0.00010       0.34485
    28    C    2  py     Val( 2p)     1.21715      -0.05175
    29    C    2  py     Ryd( 4p)     0.00332       0.82972
    30    C    2  py     Ryd( 3p)     0.00030       0.35985
    31    C    2  pz     Val( 2p)     0.99635      -0.11641
    32    C    2  pz     Ryd( 4p)     0.00270       0.44009
    33    C    2  pz     Ryd( 3p)     0.00028       0.39264
    34    C    2  dxy    Ryd( 3d)     0.00104       2.24766
    35    C    2  dxz    Ryd( 3d)     0.00063       1.90439
    36    C    2  dyz    Ryd( 3d)     0.00000       1.67996
    37    C    2  dx2y2  Ryd( 3d)     0.00059       2.29745
    38    C    2  dz2    Ryd( 3d)     0.00057       2.10708

    39    H    3  S      Val( 1S)     0.77827       0.08059
    40    H    3  S      Ryd( 2S)     0.00088       0.61620

    41    H    4  S      Val( 1S)     0.77752       0.08137
    42    H    4  S      Ryd( 2S)     0.00088       0.61650

    43    H    5  S      Val( 1S)     0.77827       0.08059
    44    H    5  S      Ryd( 2S)     0.00088       0.61620

    45    H    6  S      Val( 1S)     0.77752       0.08137
    46    H    6  S      Ryd( 2S)     0.00088       0.61650

    47    C    7  S      Cor( 1S)     1.99926     -10.06316
    48    C    7  S      Val( 2S)     1.08269      -0.24956
    49    C    7  S      Ryd( 4S)     0.00147       0.85395
    50    C    7  S      Ryd( 3S)     0.00024       0.62807
    51    C    7  S      Ryd( 5S)     0.00000       3.93992
    52    C    7  px     Val( 2p)     1.13200      -0.05386
    53    C    7  px     Ryd( 4p)     0.00374       0.42011
    54    C    7  px     Ryd( 3p)     0.00010       0.34497
    55    C    7  py     Val( 2p)     1.20240      -0.05582
    56    C    7  py     Ryd( 4p)     0.00329       0.80394
    57    C    7  py     Ryd( 3p)     0.00030       0.35792
    58    C    7  pz     Val( 2p)     1.01107      -0.11179
    59    C    7  pz     Ryd( 4p)     0.00273       0.46740
    60    C    7  pz     Ryd( 3p)     0.00028       0.39559
    61    C    7  dxy    Ryd( 3d)     0.00101       2.22495
    62    C    7  dxz    Ryd( 3d)     0.00066       1.92763
    63    C    7  dyz    Ryd( 3d)     0.00018       1.76802
    64    C    7  dx2y2  Ryd( 3d)     0.00054       2.27464
    65    C    7  dz2    Ryd( 3d)     0.00045       2.04275

    66    C    8  S      Cor( 1S)     1.99926     -10.06316
    67    C    8  S      Val( 2S)     1.08269      -0.24956
    68    C    8  S      Ryd( 4S)     0.00147       0.85395
    69    C    8  S      Ryd( 3S)     0.00024       0.62807
    70    C    8  S      Ryd( 5S)     0.00000       3.93992
    71    C    8  px     Val( 2p)     1.13200      -0.05386
    72    C    8  px     Ryd( 4p)     0.00374       0.42011
    73    C    8  px     Ryd( 3p)     0.00010       0.34497
    74    C    8  py     Val( 2p)     1.20240      -0.05582
    75    C    8  py     Ryd( 4p)     0.00329       0.80394
    76    C    8  py     Ryd( 3p)     0.00030       0.35792
    77    C    8  pz     Val( 2p)     1.01107      -0.11179
    78    C    8  pz     Ryd( 4p)     0.00273       0.46740
    79    C    8  pz     Ryd( 3p)     0.00028       0.39559
    80    C    8  dxy    Ryd( 3d)     0.00101       2.22495
    81    C    8  dxz    Ryd( 3d)     0.00066       1.92763
    82    C    8  dyz    Ryd( 3d)     0.00018       1.76802
    83    C    8  dx2y2  Ryd( 3d)     0.00054       2.27464
    84    C    8  dz2    Ryd( 3d)     0.00045       2.04275

    85    H    9  S      Val( 1S)     0.77770       0.08152
    86    H    9  S      Ryd( 2S)     0.00089       0.61658

    87    H   10  S      Val( 1S)     0.77814       0.08098
    88    H   10  S      Ryd( 2S)     0.00088       0.61647

    89    H   11  S      Val( 1S)     0.77770       0.08152
    90    H   11  S      Ryd( 2S)     0.00089       0.61658

    91    H   12  S      Val( 1S)     0.77814       0.08098
    92    H   12  S      Ryd( 2S)     0.00088       0.61647

 WARNING:  Population inversion found on atom  C    1
           Population inversion found on atom  C    2
           Population inversion found on atom  C    7
           Population inversion found on atom  C    8


 Summary of Natural Population Analysis:                  
                                                          
                                       Natural Population 
                Natural  -----------------------------------------------
    Atom  No    Charge         Core      Valence    Rydberg      Total
 -----------------------------------------------------------------------
      C    1   -0.44245      1.99926     4.42821    0.01498     6.44245
      C    2   -0.44245      1.99926     4.42821    0.01498     6.44245
      H    3    0.22085      0.00000     0.77827    0.00088     0.77915
      H    4    0.22160      0.00000     0.77752    0.00088     0.77840
      H    5    0.22085      0.00000     0.77827    0.00088     0.77915
      H    6    0.22160      0.00000     0.77752    0.00088     0.77840
      C    7   -0.44239      1.99926     4.42816    0.01497     6.44239
      C    8   -0.44239      1.99926     4.42816    0.01497     6.44239
      H    9    0.22141      0.00000     0.77770    0.00089     0.77859
      H   10    0.22097      0.00000     0.77814    0.00088     0.77903
      H   11    0.22141      0.00000     0.77770    0.00089     0.77859
      H   12    0.22097      0.00000     0.77814    0.00088     0.77903
 =======================================================================
   * Total *    0.00000      7.99704    23.93598    0.06697    32.00000

                                 Natural Population      
 --------------------------------------------------------
   Core                       7.99704 ( 99.9631% of   8)
   Valence                   23.93598 ( 99.7333% of  24)
   Natural Minimal Basis     31.93303 ( 99.7907% of  32)
   Natural Rydberg Basis      0.06697 (  0.2093% of  32)
 --------------------------------------------------------

    Atom  No          Natural Electron Configuration
 ----------------------------------------------------------------------------
      C    1      [core]2S( 1.08)2p( 3.35)4p( 0.01)
      C    2      [core]2S( 1.08)2p( 3.35)4p( 0.01)
      H    3            1S( 0.78)
      H    4            1S( 0.78)
      H    5            1S( 0.78)
      H    6            1S( 0.78)
      C    7      [core]2S( 1.08)2p( 3.35)4p( 0.01)
      C    8      [core]2S( 1.08)2p( 3.35)4p( 0.01)
      H    9            1S( 0.78)
      H   10            1S( 0.78)
      H   11            1S( 0.78)
      H   12            1S( 0.78)


 NATURAL BOND ORBITAL ANALYSIS:

                       Occupancies       Lewis Structure    Low   High
           Occ.    -------------------  -----------------   occ   occ
  Cycle   Thresh.   Lewis   Non-Lewis     CR  BD  3C  LP    (L)   (NL)   Dev
 =============================================================================
   1(1)    1.90    31.88816   0.11184      4  12   0   0     0      0    0.04
 -----------------------------------------------------------------------------

 Structure accepted: No low occupancy Lewis orbitals

 --------------------------------------------------------
   Core                      7.99706 ( 99.963% of   8)
   Valence Lewis            23.89110 ( 99.546% of  24)
  ==================       ============================
   Total Lewis              31.88816 ( 99.651% of  32)
  -----------------------------------------------------
   Valence non-Lewis         0.08258 (  0.258% of  32)
   Rydberg non-Lewis         0.02926 (  0.091% of  32)
  ==================       ============================
   Total non-Lewis           0.11184 (  0.349% of  32)
 --------------------------------------------------------


       (Occupancy)   Bond orbital/ Coefficients/ Hybrids
 ---------------------------------------------------------------------------------
     1. (1.99865) BD ( 1) C   1 - C   2  
                ( 50.00%)   0.7071* C   1 s( 20.95%)p 3.77( 78.99%)d 0.00(  0.05%)
                                            0.0000  0.4574 -0.0185 -0.0052  0.0003
                                           -0.5703  0.0341  0.0022  0.0001 -0.0001
                                            0.0002 -0.6799 -0.0352  0.0108  0.0000
                                            0.0172  0.0000  0.0125 -0.0084
                ( 50.00%)   0.7071* C   2 s( 20.95%)p 3.77( 78.99%)d 0.00(  0.05%)
                                            0.0000  0.4574 -0.0185 -0.0052  0.0003
                                            0.5703 -0.0341 -0.0022  0.0001 -0.0001
                                            0.0002 -0.6799 -0.0352  0.0108  0.0000
                                           -0.0172  0.0000  0.0125 -0.0084
     2. (1.99871) BD ( 2) C   1 - C   2  
                ( 50.00%)   0.7071* C   1 s( 18.17%)p 4.50( 81.78%)d 0.00(  0.05%)
                                            0.0000  0.4258 -0.0204 -0.0005 -0.0004
                                           -0.5301  0.0323  0.0009  0.0000  0.0002
                                           -0.0002  0.7309  0.0376 -0.0106  0.0000
                                           -0.0184  0.0000  0.0115 -0.0078
                ( 50.00%)   0.7071* C   2 s( 18.17%)p 4.50( 81.78%)d 0.00(  0.05%)
                                            0.0000  0.4258 -0.0204 -0.0005 -0.0004
                                            0.5301 -0.0323 -0.0009  0.0000  0.0002
                                           -0.0002  0.7309  0.0376 -0.0106  0.0000
                                            0.0184  0.0000  0.0115 -0.0078
     3. (1.98706) BD ( 1) C   1 - H   3  
                ( 61.13%)   0.7818* C   1 s( 30.45%)p 2.28( 69.49%)d 0.00(  0.06%)
                                           -0.0002  0.5517  0.0122  0.0019  0.0000
                                            0.4414 -0.0151 -0.0010  0.7069  0.0037
                                            0.0104 -0.0001 -0.0004  0.0009  0.0180
                                            0.0000 -0.0001 -0.0106 -0.0136
                ( 38.87%)   0.6235* H   3 s(100.00%)
                                            1.0000  0.0023
     4. (1.98703) BD ( 1) C   1 - H   4  
                ( 61.17%)   0.7821* C   1 s( 30.47%)p 2.28( 69.47%)d 0.00(  0.06%)
                                           -0.0002  0.5519  0.0122  0.0020  0.0000
                                            0.4414 -0.0149 -0.0010 -0.7067 -0.0037
                                           -0.0105 -0.0003 -0.0005  0.0010 -0.0180
                                            0.0000  0.0001 -0.0106 -0.0136
                ( 38.83%)   0.6232* H   4 s(100.00%)
                                            1.0000  0.0023
     5. (1.98706) BD ( 1) C   2 - H   5  
                ( 61.13%)   0.7818* C   2 s( 30.45%)p 2.28( 69.49%)d 0.00(  0.06%)
                                            0.0002 -0.5517 -0.0122 -0.0019  0.0000
                                            0.4414 -0.0151 -0.0010 -0.7069 -0.0037
                                           -0.0104  0.0001  0.0004 -0.0009  0.0180
                                            0.0000  0.0001  0.0106  0.0136
                ( 38.87%)   0.6235* H   5 s(100.00%)
                                           -1.0000 -0.0023
     6. (1.98703) BD ( 1) C   2 - H   6  
                ( 61.17%)   0.7821* C   2 s( 30.47%)p 2.28( 69.47%)d 0.00(  0.06%)
                                            0.0002 -0.5519 -0.0122 -0.0020  0.0000
                                            0.4414 -0.0149 -0.0010  0.7067  0.0037
                                            0.0105  0.0003  0.0005 -0.0010 -0.0180
                                            0.0000 -0.0001  0.0106  0.0136
                ( 38.83%)   0.6232* H   6 s(100.00%)
                                           -1.0000 -0.0023
     7. (1.99882) BD ( 1) C   7 - C   8  
                ( 50.00%)   0.7071* C   7 s( 18.02%)p 4.55( 81.93%)d 0.00(  0.05%)
                                            0.0000  0.4241 -0.0169 -0.0051  0.0003
                                           -0.5290  0.0316  0.0022  0.1895  0.0100
                                           -0.0033  0.7078  0.0365 -0.0111 -0.0048
                                           -0.0179 -0.0005  0.0116 -0.0076
                ( 50.00%)   0.7071* C   8 s( 18.02%)p 4.55( 81.93%)d 0.00(  0.05%)
                                            0.0000  0.4241 -0.0169 -0.0051  0.0003
                                            0.5290 -0.0316 -0.0022  0.1895  0.0100
                                           -0.0033  0.7078  0.0365 -0.0111  0.0048
                                            0.0179 -0.0005  0.0116 -0.0076
     8. (1.99855) BD ( 2) C   7 - C   8  
                ( 50.00%)   0.7071* C   7 s( 21.10%)p 3.74( 78.85%)d 0.00(  0.05%)
                                            0.0000  0.4589 -0.0217 -0.0008 -0.0004
                                           -0.5713  0.0348  0.0011 -0.1754 -0.0093
                                            0.0031 -0.6548 -0.0336  0.0094  0.0044
                                            0.0165 -0.0004  0.0125 -0.0083
                ( 50.00%)   0.7071* C   8 s( 21.10%)p 3.74( 78.85%)d 0.00(  0.05%)
                                            0.0000  0.4589 -0.0217 -0.0008 -0.0004
                                            0.5713 -0.0348 -0.0011 -0.1754 -0.0093
                                            0.0031 -0.6548 -0.0336  0.0094 -0.0044
                                           -0.0165 -0.0004  0.0125 -0.0083
     9. (1.98703) BD ( 1) C   7 - H   9  
                ( 61.16%)   0.7820* C   7 s( 30.47%)p 2.28( 69.47%)d 0.00(  0.06%)
                                           -0.0002  0.5518  0.0122  0.0020  0.0000
                                            0.4415 -0.0150 -0.0009  0.6827  0.0036
                                            0.0101 -0.1826 -0.0003 -0.0038  0.0174
                                           -0.0046 -0.0084 -0.0095 -0.0116
                ( 38.84%)   0.6232* H   9 s(100.00%)
                                            1.0000  0.0023
    10. (1.98706) BD ( 1) C   7 - H  10  
                ( 61.13%)   0.7819* C   7 s( 30.45%)p 2.28( 69.49%)d 0.00(  0.06%)
                                           -0.0002  0.5517  0.0123  0.0018  0.0001
                                            0.4414 -0.0151 -0.0011 -0.6827 -0.0036
                                           -0.0101  0.1831  0.0013  0.0018 -0.0174
                                            0.0047 -0.0086 -0.0094 -0.0116
                ( 38.87%)   0.6234* H  10 s(100.00%)
                                            1.0000  0.0023
    11. (1.98703) BD ( 1) C   8 - H  11  
                ( 61.16%)   0.7820* C   8 s( 30.47%)p 2.28( 69.47%)d 0.00(  0.06%)
                                            0.0002 -0.5518 -0.0122 -0.0020  0.0000
                                            0.4415 -0.0150 -0.0009 -0.6827 -0.0036
                                           -0.0101  0.1826  0.0003  0.0038  0.0174
                                           -0.0046  0.0084  0.0095  0.0116
                ( 38.84%)   0.6232* H  11 s(100.00%)
                                           -1.0000 -0.0023
    12. (1.98706) BD ( 1) C   8 - H  12  
                ( 61.13%)   0.7819* C   8 s( 30.45%)p 2.28( 69.49%)d 0.00(  0.06%)
                                            0.0002 -0.5517 -0.0123 -0.0018 -0.0001
                                            0.4414 -0.0151 -0.0011  0.6827  0.0036
                                            0.0101 -0.1831 -0.0013 -0.0018 -0.0174
                                            0.0047  0.0086  0.0094  0.0116
                ( 38.87%)   0.6234* H  12 s(100.00%)
                                           -1.0000 -0.0023
    13. (1.99927) CR ( 1) C   1           s(100.00%)p 0.00(  0.00%)
                                            1.0000  0.0002  0.0000  0.0000  0.0000
                                            0.0002  0.0000  0.0000  0.0000  0.0000
                                            0.0000  0.0000  0.0000  0.0000  0.0000
                                            0.0000  0.0000  0.0000  0.0000
    14. (1.99927) CR ( 1) C   2           s(100.00%)p 0.00(  0.00%)
                                            1.0000  0.0002  0.0000  0.0000  0.0000
                                           -0.0002  0.0000  0.0000  0.0000  0.0000
                                            0.0000  0.0000  0.0000  0.0000  0.0000
                                            0.0000  0.0000  0.0000  0.0000
    15. (1.99927) CR ( 1) C   7           s(100.00%)p 0.00(  0.00%)
                                            1.0000  0.0002  0.0000  0.0000  0.0000
                                            0.0002  0.0000  0.0000  0.0000  0.0000
                                            0.0000  0.0000  0.0000  0.0000  0.0000
                                            0.0000  0.0000  0.0000  0.0000
    16. (1.99927) CR ( 1) C   8           s(100.00%)p 0.00(  0.00%)
                                            1.0000  0.0002  0.0000  0.0000  0.0000
                                           -0.0002  0.0000  0.0000  0.0000  0.0000
                                            0.0000  0.0000  0.0000  0.0000  0.0000
                                            0.0000  0.0000  0.0000  0.0000
    17. (0.00371) RY*( 1) C   1           s(  0.00%)p 1.00( 91.21%)d 0.10(  8.79%)
                                            0.0000  0.0000  0.0001  0.0001 -0.0001
                                            0.0000 -0.0004  0.0009  0.0141 -0.9486
                                           -0.1093  0.0002 -0.0003  0.0000 -0.2965
                                            0.0001 -0.0001  0.0000  0.0000
    18. (0.00158) RY*( 2) C   1           s( 27.97%)p 2.57( 71.84%)d 0.01(  0.18%)
                                            0.0000  0.0113  0.4759 -0.2301 -0.0136
                                           -0.0562 -0.8156 -0.2231 -0.0001  0.0000
                                           -0.0005  0.0015  0.0124  0.0125  0.0004
                                           -0.0002 -0.0001 -0.0185 -0.0384
    19. (0.00017) RY*( 3) C   1           s( 51.01%)p 0.94( 47.97%)d 0.02(  1.01%)
                                            0.0000  0.0035 -0.2516  0.6645 -0.0729
                                           -0.0112 -0.2738 -0.2216  0.0001  0.0006
                                           -0.0012  0.0258 -0.4477  0.3930 -0.0013
                                           -0.0170  0.0024 -0.0731  0.0670
    20. (0.00007) RY*( 4) C   1           s( 49.52%)p 0.88( 43.65%)d 0.14(  6.83%)
    21. (0.00000) RY*( 5) C   1           s(  0.07%)p99.99( 99.93%)d 0.08(  0.01%)
    22. (0.00000) RY*( 6) C   1           s( 98.79%)p 0.01(  1.18%)d 0.00(  0.03%)
    23. (0.00000) RY*( 7) C   1           s(  0.00%)p 1.00(100.00%)d 0.00(  0.00%)
    24. (0.00000) RY*( 8) C   1           s( 60.44%)p 0.65( 39.41%)d 0.00(  0.15%)
    25. (0.00001) RY*( 9) C   1           s(  6.11%)p15.37( 93.89%)d 0.00(  0.00%)
    26. (0.00000) RY*(10) C   1           s(  0.00%)p 1.00(  8.86%)d10.29( 91.14%)
    27. (0.00000) RY*(11) C   1           s(  0.01%)p 1.00(  0.12%)d99.99( 99.87%)
    28. (0.00000) RY*(12) C   1           s(  0.00%)p 0.00(  0.00%)d 1.00(100.00%)
    29. (0.00000) RY*(13) C   1           s(  2.02%)p 0.36(  0.73%)d48.20( 97.25%)
    30. (0.00001) RY*(14) C   1           s(  4.02%)p 0.37(  1.48%)d23.49( 94.50%)
    31. (0.00371) RY*( 1) C   2           s(  0.00%)p 1.00( 91.21%)d 0.10(  8.79%)
                                            0.0000  0.0000  0.0001  0.0001 -0.0001
                                            0.0000  0.0004 -0.0009  0.0141 -0.9486
                                           -0.1093  0.0002 -0.0003  0.0000  0.2965
                                           -0.0001 -0.0001  0.0000  0.0000
    32. (0.00158) RY*( 2) C   2           s( 27.97%)p 2.57( 71.84%)d 0.01(  0.18%)
                                            0.0000  0.0113  0.4759 -0.2301 -0.0136
                                            0.0562  0.8156  0.2231 -0.0001  0.0000
                                           -0.0005  0.0015  0.0124  0.0125 -0.0004
                                            0.0002 -0.0001 -0.0185 -0.0384
    33. (0.00017) RY*( 3) C   2           s( 51.01%)p 0.94( 47.97%)d 0.02(  1.01%)
                                            0.0000  0.0035 -0.2516  0.6645 -0.0729
                                            0.0112  0.2738  0.2216  0.0001  0.0006
                                           -0.0012  0.0258 -0.4477  0.3930  0.0013
                                            0.0170  0.0024 -0.0731  0.0670
    34. (0.00007) RY*( 4) C   2           s( 49.52%)p 0.88( 43.65%)d 0.14(  6.83%)
    35. (0.00000) RY*( 5) C   2           s(  0.07%)p99.99( 99.93%)d 0.08(  0.01%)
    36. (0.00000) RY*( 6) C   2           s( 98.79%)p 0.01(  1.18%)d 0.00(  0.03%)
    37. (0.00000) RY*( 7) C   2           s(  0.00%)p 1.00(100.00%)d 0.00(  0.00%)
    38. (0.00000) RY*( 8) C   2           s( 60.44%)p 0.65( 39.41%)d 0.00(  0.15%)
    39. (0.00001) RY*( 9) C   2           s(  6.11%)p15.37( 93.89%)d 0.00(  0.00%)
    40. (0.00000) RY*(10) C   2           s(  0.00%)p 1.00(  8.86%)d10.29( 91.14%)
    41. (0.00000) RY*(11) C   2           s(  0.01%)p 1.00(  0.12%)d99.99( 99.87%)
    42. (0.00000) RY*(12) C   2           s(  0.00%)p 0.00(  0.00%)d 1.00(100.00%)
    43. (0.00000) RY*(13) C   2           s(  2.02%)p 0.36(  0.73%)d48.20( 97.25%)
    44. (0.00001) RY*(14) C   2           s(  4.02%)p 0.37(  1.48%)d23.49( 94.50%)
    45. (0.00089) RY*( 1) H   3           s(100.00%)
                                           -0.0023  1.0000
    46. (0.00088) RY*( 1) H   4           s(100.00%)
                                           -0.0023  1.0000
    47. (0.00089) RY*( 1) H   5           s(100.00%)
                                           -0.0023  1.0000
    48. (0.00088) RY*( 1) H   6           s(100.00%)
                                           -0.0023  1.0000
    49. (0.00371) RY*( 1) C   7           s(  0.00%)p 1.00( 91.21%)d 0.10(  8.79%)
                                            0.0000  0.0001  0.0016  0.0004 -0.0002
                                           -0.0001 -0.0014  0.0033 -0.0137  0.9162
                                            0.1046  0.0034 -0.2464 -0.0307  0.2863
                                           -0.0769 -0.0002  0.0000  0.0002
    50. (0.00158) RY*( 2) C   7           s( 27.88%)p 2.58( 71.94%)d 0.01(  0.18%)
                                            0.0000  0.0113  0.4743 -0.2314 -0.0125
                                           -0.0562 -0.8162 -0.2232 -0.0003 -0.0041
                                           -0.0010 -0.0016 -0.0114 -0.0125 -0.0011
                                            0.0006 -0.0220 -0.0154 -0.0331
    51. (0.00017) RY*( 3) C   7           s( 51.64%)p 0.91( 47.19%)d 0.02(  1.17%)
                                            0.0000  0.0035 -0.2245  0.6795 -0.0655
                                           -0.0116 -0.2620 -0.2234 -0.0088  0.0929
                                            0.0282 -0.0235  0.4271 -0.4010  0.0216
                                            0.0113  0.0262 -0.0826  0.0598
    52. (0.00007) RY*( 4) C   7           s( 46.43%)p 1.01( 46.75%)d 0.15(  6.82%)
    53. (0.00000) RY*( 5) C   7           s(  0.05%)p99.99( 99.94%)d 0.09(  0.01%)
    54. (0.00000) RY*( 6) C   7           s( 99.02%)p 0.01(  0.96%)d 0.00(  0.02%)
    55. (0.00000) RY*( 7) C   7           s(  0.01%)p99.99( 99.99%)d 0.19(  0.00%)
    56. (0.00000) RY*( 8) C   7           s( 62.98%)p 0.59( 36.93%)d 0.00(  0.10%)
    57. (0.00001) RY*( 9) C   7           s(  5.87%)p16.02( 94.11%)d 0.00(  0.01%)
    58. (0.00000) RY*(10) C   7           s(  0.02%)p99.99(  8.40%)d99.99( 91.59%)
    59. (0.00000) RY*(11) C   7           s(  0.00%)p 1.00(  0.64%)d99.99( 99.36%)
    60. (0.00000) RY*(12) C   7           s(  0.28%)p 0.12(  0.03%)d99.99( 99.69%)
    61. (0.00000) RY*(13) C   7           s(  2.21%)p 0.30(  0.67%)d43.88( 97.12%)
    62. (0.00000) RY*(14) C   7           s(  3.56%)p 0.43(  1.52%)d26.63( 94.92%)
    63. (0.00371) RY*( 1) C   8           s(  0.00%)p 1.00( 91.21%)d 0.10(  8.79%)
                                            0.0000  0.0001  0.0016  0.0004 -0.0002
                                            0.0001  0.0014 -0.0033 -0.0137  0.9162
                                            0.1046  0.0034 -0.2464 -0.0307 -0.2863
                                            0.0769 -0.0002  0.0000  0.0002
    64. (0.00158) RY*( 2) C   8           s( 27.88%)p 2.58( 71.94%)d 0.01(  0.18%)
                                            0.0000  0.0113  0.4743 -0.2314 -0.0125
                                            0.0562  0.8162  0.2232 -0.0003 -0.0041
                                           -0.0010 -0.0016 -0.0114 -0.0125  0.0011
                                           -0.0006 -0.0220 -0.0154 -0.0331
    65. (0.00017) RY*( 3) C   8           s( 51.64%)p 0.91( 47.19%)d 0.02(  1.17%)
                                            0.0000  0.0035 -0.2245  0.6795 -0.0655
                                            0.0116  0.2620  0.2234 -0.0088  0.0929
                                            0.0282 -0.0235  0.4271 -0.4010 -0.0216
                                           -0.0113  0.0262 -0.0826  0.0598
    66. (0.00007) RY*( 4) C   8           s( 46.43%)p 1.01( 46.75%)d 0.15(  6.82%)
    67. (0.00000) RY*( 5) C   8           s(  0.05%)p99.99( 99.94%)d 0.09(  0.01%)
    68. (0.00000) RY*( 6) C   8           s( 99.02%)p 0.01(  0.96%)d 0.00(  0.02%)
    69. (0.00000) RY*( 7) C   8           s(  0.01%)p99.99( 99.99%)d 0.19(  0.00%)
    70. (0.00000) RY*( 8) C   8           s( 62.98%)p 0.59( 36.93%)d 0.00(  0.10%)
    71. (0.00001) RY*( 9) C   8           s(  5.87%)p16.02( 94.11%)d 0.00(  0.01%)
    72. (0.00000) RY*(10) C   8           s(  0.02%)p99.99(  8.40%)d99.99( 91.59%)
    73. (0.00000) RY*(11) C   8           s(  0.00%)p 1.00(  0.64%)d99.99( 99.36%)
    74. (0.00000) RY*(12) C   8           s(  0.28%)p 0.12(  0.03%)d99.99( 99.69%)
    75. (0.00000) RY*(13) C   8           s(  2.21%)p 0.30(  0.67%)d43.88( 97.12%)
    76. (0.00000) RY*(14) C   8           s(  3.56%)p 0.43(  1.52%)d26.63( 94.92%)
    77. (0.00089) RY*( 1) H   9           s(100.00%)
                                           -0.0023  1.0000
    78. (0.00089) RY*( 1) H  10           s(100.00%)
                                           -0.0023  1.0000
    79. (0.00089) RY*( 1) H  11           s(100.00%)
                                           -0.0023  1.0000
    80. (0.00089) RY*( 1) H  12           s(100.00%)
                                           -0.0023  1.0000
    81. (0.00155) BD*( 1) C   1 - C   2  
                ( 50.00%)   0.7071* C   1 s( 20.95%)p 3.77( 78.99%)d 0.00(  0.05%)
                                            0.0000 -0.4574  0.0185  0.0052 -0.0003
                                            0.5703 -0.0341 -0.0022 -0.0001  0.0001
                                           -0.0002  0.6799  0.0352 -0.0108  0.0000
                                           -0.0172  0.0000 -0.0125  0.0084
                ( 50.00%)  -0.7071* C   2 s( 20.95%)p 3.77( 78.99%)d 0.00(  0.05%)
                                            0.0000 -0.4574  0.0185  0.0052 -0.0003
                                           -0.5703  0.0341  0.0022 -0.0001  0.0001
                                           -0.0002  0.6799  0.0352 -0.0108  0.0000
                                            0.0172  0.0000 -0.0125  0.0084
    82. (0.00136) BD*( 2) C   1 - C   2  
                ( 50.00%)   0.7071* C   1 s( 18.17%)p 4.50( 81.78%)d 0.00(  0.05%)
                                            0.0000 -0.4258  0.0204  0.0005  0.0004
                                            0.5301 -0.0323 -0.0009  0.0000 -0.0002
                                            0.0002 -0.7309 -0.0376  0.0106  0.0000
                                            0.0184  0.0000 -0.0115  0.0078
                ( 50.00%)  -0.7071* C   2 s( 18.17%)p 4.50( 81.78%)d 0.00(  0.05%)
                                            0.0000 -0.4258  0.0204  0.0005  0.0004
                                           -0.5301  0.0323  0.0009  0.0000 -0.0002
                                            0.0002 -0.7309 -0.0376  0.0106  0.0000
                                           -0.0184  0.0000 -0.0115  0.0078
    83. (0.00960) BD*( 1) C   1 - H   3  
                ( 38.87%)   0.6235* C   1 s( 30.45%)p 2.28( 69.49%)d 0.00(  0.06%)
                                            0.0002 -0.5517 -0.0122 -0.0019  0.0000
                                           -0.4414  0.0151  0.0010 -0.7069 -0.0037
                                           -0.0104  0.0001  0.0004 -0.0009 -0.0180
                                            0.0000  0.0001  0.0106  0.0136
                ( 61.13%)  -0.7818* H   3 s(100.00%)
                                           -1.0000 -0.0023
    84. (0.00959) BD*( 1) C   1 - H   4  
                ( 38.83%)   0.6232* C   1 s( 30.47%)p 2.28( 69.47%)d 0.00(  0.06%)
                                            0.0002 -0.5519 -0.0122 -0.0020  0.0000
                                           -0.4414  0.0149  0.0010  0.7067  0.0037
                                            0.0105  0.0003  0.0005 -0.0010  0.0180
                                            0.0000 -0.0001  0.0106  0.0136
                ( 61.17%)  -0.7821* H   4 s(100.00%)
                                           -1.0000 -0.0023
    85. (0.00960) BD*( 1) C   2 - H   5  
                ( 38.87%)   0.6235* C   2 s( 30.45%)p 2.28( 69.49%)d 0.00(  0.06%)
                                           -0.0002  0.5517  0.0122  0.0019  0.0000
                                           -0.4414  0.0151  0.0010  0.7069  0.0037
                                            0.0104 -0.0001 -0.0004  0.0009 -0.0180
                                            0.0000 -0.0001 -0.0106 -0.0136
                ( 61.13%)  -0.7818* H   5 s(100.00%)
                                            1.0000  0.0023
    86. (0.00959) BD*( 1) C   2 - H   6  
                ( 38.83%)   0.6232* C   2 s( 30.47%)p 2.28( 69.47%)d 0.00(  0.06%)
                                           -0.0002  0.5519  0.0122  0.0020  0.0000
                                           -0.4414  0.0149  0.0010 -0.7067 -0.0037
                                           -0.0105 -0.0003 -0.0005  0.0010  0.0180
                                            0.0000  0.0001 -0.0106 -0.0136
                ( 61.17%)  -0.7821* H   6 s(100.00%)
                                            1.0000  0.0023
    87. (0.00133) BD*( 1) C   7 - C   8  
                ( 50.00%)   0.7071* C   7 s( 18.02%)p 4.55( 81.93%)d 0.00(  0.05%)
                                            0.0000 -0.4241  0.0169  0.0051 -0.0003
                                            0.5290 -0.0316 -0.0022 -0.1895 -0.0100
                                            0.0033 -0.7078 -0.0365  0.0111  0.0048
                                            0.0179  0.0005 -0.0116  0.0076
                ( 50.00%)  -0.7071* C   8 s( 18.02%)p 4.55( 81.93%)d 0.00(  0.05%)
                                            0.0000 -0.4241  0.0169  0.0051 -0.0003
                                           -0.5290  0.0316  0.0022 -0.1895 -0.0100
                                            0.0033 -0.7078 -0.0365  0.0111 -0.0048
                                           -0.0179  0.0005 -0.0116  0.0076
    88. (0.00158) BD*( 2) C   7 - C   8  
                ( 50.00%)   0.7071* C   7 s( 21.10%)p 3.74( 78.85%)d 0.00(  0.05%)
                                            0.0000 -0.4589  0.0217  0.0008  0.0004
                                            0.5713 -0.0348 -0.0011  0.1754  0.0093
                                           -0.0031  0.6548  0.0336 -0.0094 -0.0044
                                           -0.0165  0.0004 -0.0125  0.0083
                ( 50.00%)  -0.7071* C   8 s( 21.10%)p 3.74( 78.85%)d 0.00(  0.05%)
                                            0.0000 -0.4589  0.0217  0.0008  0.0004
                                           -0.5713  0.0348  0.0011  0.1754  0.0093
                                           -0.0031  0.6548  0.0336 -0.0094  0.0044
                                            0.0165  0.0004 -0.0125  0.0083
    89. (0.00959) BD*( 1) C   7 - H   9  
                ( 38.84%)   0.6232* C   7 s( 30.47%)p 2.28( 69.47%)d 0.00(  0.06%)
                                            0.0002 -0.5518 -0.0122 -0.0020  0.0000
                                           -0.4415  0.0150  0.0009 -0.6827 -0.0036
                                           -0.0101  0.1826  0.0003  0.0038 -0.0174
                                            0.0046  0.0084  0.0095  0.0116
                ( 61.16%)  -0.7820* H   9 s(100.00%)
                                           -1.0000 -0.0023
    90. (0.00960) BD*( 1) C   7 - H  10  
                ( 38.87%)   0.6234* C   7 s( 30.45%)p 2.28( 69.49%)d 0.00(  0.06%)
                                            0.0002 -0.5517 -0.0123 -0.0018 -0.0001
                                           -0.4414  0.0151  0.0011  0.6827  0.0036
                                            0.0101 -0.1831 -0.0013 -0.0018  0.0174
                                           -0.0047  0.0086  0.0094  0.0116
                ( 61.13%)  -0.7819* H  10 s(100.00%)
                                           -1.0000 -0.0023
    91. (0.00959) BD*( 1) C   8 - H  11  
                ( 38.84%)   0.6232* C   8 s( 30.47%)p 2.28( 69.47%)d 0.00(  0.06%)
                                           -0.0002  0.5518  0.0122  0.0020  0.0000
                                           -0.4415  0.0150  0.0009  0.6827  0.0036
                                            0.0101 -0.1826 -0.0003 -0.0038 -0.0174
                                            0.0046 -0.0084 -0.0095 -0.0116
                ( 61.16%)  -0.7820* H  11 s(100.00%)
                                            1.0000  0.0023
    92. (0.00960) BD*( 1) C   8 - H  12  
                ( 38.87%)   0.6234* C   8 s( 30.45%)p 2.28( 69.49%)d 0.00(  0.06%)
                                           -0.0002  0.5517  0.0123  0.0018  0.0001
                                           -0.4414  0.0151  0.0011 -0.6827 -0.0036
                                           -0.0101  0.1831  0.0013  0.0018  0.0174
                                           -0.0047 -0.0086 -0.0094 -0.0116
                ( 61.13%)  -0.7819* H  12 s(100.00%)
                                            1.0000  0.0023


 NHO Directionality and "Bond Bending" (deviations from line of nuclear centers)

         [Thresholds for printing:  angular deviation  >  1.0 degree]
                                    hybrid p-character > 25.0%
                                    orbital occupancy  >  0.10e

                                Line of Centers        Hybrid 1              Hybrid 2
                                ---------------  -------------------   ------------------
                NBO               Theta   Phi    Theta   Phi    Dev    Theta   Phi    Dev
 ========================================================================================
     1. BD (   1) C   1 - C   2    90.0  180.0   142.8  180.0  52.8    142.8    0.0  52.8
     2. BD (   2) C   1 - C   2    90.0  180.0    33.2  180.0  56.8     33.2    0.0  56.8
     7. BD (   1) C   7 - C   8    90.0  180.0    36.0  158.4  56.9     36.0   21.6  56.9
     8. BD (   2) C   7 - C   8    90.0  180.0   140.2  198.7  52.7    140.2  341.3  52.7


 Second Order Perturbation Theory Analysis of Fock Matrix in NBO Basis

     Threshold for printing:   0.50 kcal/mol
    (Intermolecular threshold: 0.05 kcal/mol)
                                                                              E(2)  E(j)-E(i) F(i,j)
         Donor NBO (i)                     Acceptor NBO (j)                 kcal/mol   a.u.    a.u. 
 ===================================================================================================

 within unit  1
   3. BD (   1) C   1 - H   3        / 31. RY*(   1) C   2                    1.42    1.56    0.042
   3. BD (   1) C   1 - H   3        / 32. RY*(   2) C   2                    0.65    1.09    0.024
   3. BD (   1) C   1 - H   3        / 81. BD*(   1) C   1 - C   2            0.51    0.88    0.019
   3. BD (   1) C   1 - H   3        / 86. BD*(   1) C   2 - H   6            4.31    0.99    0.058
   4. BD (   1) C   1 - H   4        / 31. RY*(   1) C   2                    1.42    1.56    0.042
   4. BD (   1) C   1 - H   4        / 32. RY*(   2) C   2                    0.65    1.09    0.024
   4. BD (   1) C   1 - H   4        / 81. BD*(   1) C   1 - C   2            0.51    0.88    0.019
   4. BD (   1) C   1 - H   4        / 85. BD*(   1) C   2 - H   5            4.32    0.99    0.058
   5. BD (   1) C   2 - H   5        / 17. RY*(   1) C   1                    1.42    1.56    0.042
   5. BD (   1) C   2 - H   5        / 18. RY*(   2) C   1                    0.65    1.09    0.024
   5. BD (   1) C   2 - H   5        / 81. BD*(   1) C   1 - C   2            0.51    0.88    0.019
   5. BD (   1) C   2 - H   5        / 84. BD*(   1) C   1 - H   4            4.31    0.99    0.058
   6. BD (   1) C   2 - H   6        / 17. RY*(   1) C   1                    1.42    1.56    0.042
   6. BD (   1) C   2 - H   6        / 18. RY*(   2) C   1                    0.65    1.09    0.024
   6. BD (   1) C   2 - H   6        / 81. BD*(   1) C   1 - C   2            0.51    0.88    0.019
   6. BD (   1) C   2 - H   6        / 83. BD*(   1) C   1 - H   3            4.32    0.99    0.058
  13. CR (   1) C   1                / 32. RY*(   2) C   2                    2.76   10.63    0.153
  13. CR (   1) C   1                / 85. BD*(   1) C   2 - H   5            0.67   10.53    0.075
  13. CR (   1) C   1                / 86. BD*(   1) C   2 - H   6            0.67   10.53    0.075
  14. CR (   1) C   2                / 18. RY*(   2) C   1                    2.76   10.63    0.153
  14. CR (   1) C   2                / 83. BD*(   1) C   1 - H   3            0.67   10.53    0.075
  14. CR (   1) C   2                / 84. BD*(   1) C   1 - H   4            0.67   10.53    0.075

 from unit  1 to unit  2
       None above threshold

 from unit  2 to unit  1
       None above threshold

 within unit  2
   9. BD (   1) C   7 - H   9        / 63. RY*(   1) C   8                    1.42    1.56    0.042
   9. BD (   1) C   7 - H   9        / 64. RY*(   2) C   8                    0.65    1.09    0.024
   9. BD (   1) C   7 - H   9        / 88. BD*(   2) C   7 - C   8            0.52    0.88    0.019
   9. BD (   1) C   7 - H   9        / 92. BD*(   1) C   8 - H  12            4.32    0.99    0.058
  10. BD (   1) C   7 - H  10        / 63. RY*(   1) C   8                    1.42    1.56    0.042
  10. BD (   1) C   7 - H  10        / 64. RY*(   2) C   8                    0.65    1.09    0.024
  10. BD (   1) C   7 - H  10        / 88. BD*(   2) C   7 - C   8            0.51    0.88    0.019
  10. BD (   1) C   7 - H  10        / 91. BD*(   1) C   8 - H  11            4.32    0.99    0.058
  11. BD (   1) C   8 - H  11        / 49. RY*(   1) C   7                    1.42    1.56    0.042
  11. BD (   1) C   8 - H  11        / 50. RY*(   2) C   7                    0.65    1.09    0.024
  11. BD (   1) C   8 - H  11        / 88. BD*(   2) C   7 - C   8            0.52    0.88    0.019
  11. BD (   1) C   8 - H  11        / 90. BD*(   1) C   7 - H  10            4.32    0.99    0.058
  12. BD (   1) C   8 - H  12        / 49. RY*(   1) C   7                    1.42    1.56    0.042
  12. BD (   1) C   8 - H  12        / 50. RY*(   2) C   7                    0.65    1.09    0.024
  12. BD (   1) C   8 - H  12        / 88. BD*(   2) C   7 - C   8            0.51    0.88    0.019
  12. BD (   1) C   8 - H  12        / 89. BD*(   1) C   7 - H   9            4.32    0.99    0.058
  15. CR (   1) C   7                / 64. RY*(   2) C   8                    2.76   10.63    0.153
  15. CR (   1) C   7                / 91. BD*(   1) C   8 - H  11            0.67   10.53    0.075
  15. CR (   1) C   7                / 92. BD*(   1) C   8 - H  12            0.67   10.53    0.075
  16. CR (   1) C   8                / 50. RY*(   2) C   7                    2.76   10.63    0.153
  16. CR (   1) C   8                / 89. BD*(   1) C   7 - H   9            0.67   10.53    0.075
  16. CR (   1) C   8                / 90. BD*(   1) C   7 - H  10            0.67   10.53    0.075


 Natural Bond Orbitals (Summary):

                                                            Principal Delocalizations
           NBO                        Occupancy    Energy   (geminal,vicinal,remote)
 ====================================================================================
 Molecular unit  1  (C2H4)
     1. BD (   1) C   1 - C   2          1.99865    -0.52274   
     2. BD (   2) C   1 - C   2          1.99871    -0.48873   
     3. BD (   1) C   1 - H   3          1.98706    -0.52181  86(v),31(v),32(v),81(g)
     4. BD (   1) C   1 - H   4          1.98703    -0.52158  85(v),31(v),32(v),81(g)
     5. BD (   1) C   2 - H   5          1.98706    -0.52181  84(v),17(v),18(v),81(g)
     6. BD (   1) C   2 - H   6          1.98703    -0.52158  83(v),17(v),18(v),81(g)
    13. CR (   1) C   1                  1.99927   -10.06376  32(v),85(v),86(v)
    14. CR (   1) C   2                  1.99927   -10.06376  18(v),83(v),84(v)
    17. RY*(   1) C   1                  0.00371     1.03881   
    18. RY*(   2) C   1                  0.00158     0.56473   
    19. RY*(   3) C   1                  0.00017     0.36441   
    20. RY*(   4) C   1                  0.00007     0.58372   
    21. RY*(   5) C   1                  0.00000     0.25617   
    22. RY*(   6) C   1                  0.00000     3.93501   
    23. RY*(   7) C   1                  0.00000     0.32018   
    24. RY*(   8) C   1                  0.00000     0.74482   
    25. RY*(   9) C   1                  0.00001     0.67942   
    26. RY*(  10) C   1                  0.00000     2.07274   
    27. RY*(  11) C   1                  0.00000     1.90074   
    28. RY*(  12) C   1                  0.00000     1.67994   
    29. RY*(  13) C   1                  0.00000     2.23435   
    30. RY*(  14) C   1                  0.00001     2.04699   
    31. RY*(   1) C   2                  0.00371     1.03881   
    32. RY*(   2) C   2                  0.00158     0.56473   
    33. RY*(   3) C   2                  0.00017     0.36441   
    34. RY*(   4) C   2                  0.00007     0.58372   
    35. RY*(   5) C   2                  0.00000     0.25617   
    36. RY*(   6) C   2                  0.00000     3.93501   
    37. RY*(   7) C   2                  0.00000     0.32018   
    38. RY*(   8) C   2                  0.00000     0.74482   
    39. RY*(   9) C   2                  0.00001     0.67942   
    40. RY*(  10) C   2                  0.00000     2.07274   
    41. RY*(  11) C   2                  0.00000     1.90074   
    42. RY*(  12) C   2                  0.00000     1.67994   
    43. RY*(  13) C   2                  0.00000     2.23435   
    44. RY*(  14) C   2                  0.00001     2.04699   
    45. RY*(   1) H   3                  0.00089     0.61494   
    46. RY*(   1) H   4                  0.00088     0.61525   
    47. RY*(   1) H   5                  0.00089     0.61494   
    48. RY*(   1) H   6                  0.00088     0.61525   
    81. BD*(   1) C   1 - C   2          0.00155     0.35573   
    82. BD*(   2) C   1 - C   2          0.00136     0.31207   
    83. BD*(   1) C   1 - H   3          0.00960     0.46585   
    84. BD*(   1) C   1 - H   4          0.00959     0.46639   
    85. BD*(   1) C   2 - H   5          0.00960     0.46585   
    86. BD*(   1) C   2 - H   6          0.00959     0.46639   
       -------------------------------
              Total Lewis   15.94408  ( 99.6505%)
        Valence non-Lewis    0.04129  (  0.2580%)
        Rydberg non-Lewis    0.01463  (  0.0914%)
       -------------------------------
            Total unit  1   16.00000  (100.0000%)
           Charge unit  1    0.00000

 Molecular unit  2  (C2H4)
     7. BD (   1) C   7 - C   8          1.99882    -0.48769   
     8. BD (   2) C   7 - C   8          1.99855    -0.52325   
     9. BD (   1) C   7 - H   9          1.98703    -0.52134  92(v),63(v),64(v),88(g)
    10. BD (   1) C   7 - H  10          1.98706    -0.52151  91(v),63(v),64(v),88(g)
    11. BD (   1) C   8 - H  11          1.98703    -0.52134  90(v),49(v),50(v),88(g)
    12. BD (   1) C   8 - H  12          1.98706    -0.52151  89(v),49(v),50(v),88(g)
    15. CR (   1) C   7                  1.99927   -10.06352  64(v),92(v),91(v)
    16. CR (   1) C   8                  1.99927   -10.06352  50(v),90(v),89(v)
    49. RY*(   1) C   7                  0.00371     1.03924   
    50. RY*(   2) C   7                  0.00158     0.56524   
    51. RY*(   3) C   7                  0.00017     0.38399   
    52. RY*(   4) C   7                  0.00007     0.55842   
    53. RY*(   5) C   7                  0.00000     0.25884   
    54. RY*(   6) C   7                  0.00000     3.93361   
    55. RY*(   7) C   7                  0.00000     0.31418   
    56. RY*(   8) C   7                  0.00000     0.75765   
    57. RY*(   9) C   7                  0.00001     0.67916   
    58. RY*(  10) C   7                  0.00000     2.05959   
    59. RY*(  11) C   7                  0.00000     1.91229   
    60. RY*(  12) C   7                  0.00000     1.76775   
    61. RY*(  13) C   7                  0.00000     2.21137   
    62. RY*(  14) C   7                  0.00000     1.98419   
    63. RY*(   1) C   8                  0.00371     1.03924   
    64. RY*(   2) C   8                  0.00158     0.56524   
    65. RY*(   3) C   8                  0.00017     0.38399   
    66. RY*(   4) C   8                  0.00007     0.55842   
    67. RY*(   5) C   8                  0.00000     0.25884   
    68. RY*(   6) C   8                  0.00000     3.93361   
    69. RY*(   7) C   8                  0.00000     0.31418   
    70. RY*(   8) C   8                  0.00000     0.75765   
    71. RY*(   9) C   8                  0.00001     0.67916   
    72. RY*(  10) C   8                  0.00000     2.05959   
    73. RY*(  11) C   8                  0.00000     1.91229   
    74. RY*(  12) C   8                  0.00000     1.76775   
    75. RY*(  13) C   8                  0.00000     2.21137   
    76. RY*(  14) C   8                  0.00000     1.98419   
    77. RY*(   1) H   9                  0.00089     0.61532   
    78. RY*(   1) H  10                  0.00089     0.61522   
    79. RY*(   1) H  11                  0.00089     0.61532   
    80. RY*(   1) H  12                  0.00089     0.61522   
    87. BD*(   1) C   7 - C   8          0.00133     0.31061   
    88. BD*(   2) C   7 - C   8          0.00158     0.35771   
    89. BD*(   1) C   7 - H   9          0.00959     0.46663   
    90. BD*(   1) C   7 - H  10          0.00960     0.46621   
    91. BD*(   1) C   8 - H  11          0.00959     0.46663   
    92. BD*(   1) C   8 - H  12          0.00960     0.46621   
       -------------------------------
              Total Lewis   15.94408  ( 99.6505%)
        Valence non-Lewis    0.04129  (  0.2581%)
        Rydberg non-Lewis    0.01463  (  0.0915%)
       -------------------------------
            Total unit  2   16.00000  (100.0000%)
           Charge unit  2    0.00000
 1\1\GINC-RSWPRH01\SP\RB3LYP\6-31+G(d)\C4H8\ROOT\18-Sep-2016\0\\# B3LYP
 /6-31+G* int=ultrafine nosymm pop=nboread\\A_B_15\\0,1\C,0,0.672749,0.
 ,0.\C,0,-0.672749,0.,0.\H,0,1.242623,0.934806,0.\H,0,1.242623,-0.93480
 6,0.\H,0,-1.242623,0.934806,0.\H,0,-1.242623,-0.934806,0.\C,0,0.672749
 ,0.,5.\C,0,-0.672749,0.,5.\H,0,1.242623,0.902953,4.758054\H,0,1.242623
 ,-0.902953,5.241946\H,0,-1.242623,0.902953,4.758054\H,0,-1.242623,-0.9
 02953,5.241946\\Version=ES64L-G09RevD.01\HF=-157.1855984\RMSD=4.036e-0
 9\Dipole=0.,-0.002991,-0.0007022\Quadrupole=1.9206436,1.7867708,-3.707
 4145,0.,0.,-0.6846105\PG=CS [X(C4H8)]\\@


 THE TEST OF A FIRST RATE INTELLIGENCE IS THE ABILITY TO HOLD TWO OPPOSED
 IDEAS IN THE MIND AT THE SAME TIME, AND STILL RETAIN THE ABILITY TO FUNCTION.
 ONE SHOULD, FOR EXAMPLE, BE ABLE TO SEE THAT THINGS ARE HOPELESS AND YET BE
 DETERMINED TO MAKE THEM OTHERWISE.

                                                       -- F. SCOTT FITZGERALD
 Job cpu time:       0 days  0 hours  0 minutes 28.7 seconds.
 File lengths (MBytes):  RWF=      5 Int=      0 D2E=      0 Chk=      1 Scr=      1
 Normal termination of Gaussian 09 at Sun Sep 18 08:50:34 2016.
