 Entering Gaussian System, Link 0=g09
 Input=A_B_0.gjf
 Output=A_B_0.log
 Initial command:
 /opt/share/GAUSSIAN/v09-D.01.app/g09/l1.exe "/tmp/Gau-10884.inp" -scrdir="/tmp/"
 Entering Link 1 = /opt/share/GAUSSIAN/v09-D.01.app/g09/l1.exe PID=     10885.
  
 Copyright (c) 1988,1990,1992,1993,1995,1998,2003,2009,2013,
            Gaussian, Inc.  All Rights Reserved.
  
 This is part of the Gaussian(R) 09 program.  It is based on
 the Gaussian(R) 03 system (copyright 2003, Gaussian, Inc.),
 the Gaussian(R) 98 system (copyright 1998, Gaussian, Inc.),
 the Gaussian(R) 94 system (copyright 1995, Gaussian, Inc.),
 the Gaussian 92(TM) system (copyright 1992, Gaussian, Inc.),
 the Gaussian 90(TM) system (copyright 1990, Gaussian, Inc.),
 the Gaussian 88(TM) system (copyright 1988, Gaussian, Inc.),
 the Gaussian 86(TM) system (copyright 1986, Carnegie Mellon
 University), and the Gaussian 82(TM) system (copyright 1983,
 Carnegie Mellon University). Gaussian is a federally registered
 trademark of Gaussian, Inc.
  
 This software contains proprietary and confidential information,
 including trade secrets, belonging to Gaussian, Inc.
  
 This software is provided under written license and may be
 used, copied, transmitted, or stored only in accord with that
 written license.
  
 The following legend is applicable only to US Government
 contracts under FAR:
  
                    RESTRICTED RIGHTS LEGEND
  
 Use, reproduction and disclosure by the US Government is
 subject to restrictions as set forth in subparagraphs (a)
 and (c) of the Commercial Computer Software - Restricted
 Rights clause in FAR 52.227-19.
  
 Gaussian, Inc.
 340 Quinnipiac St., Bldg. 40, Wallingford CT 06492
  
  
 ---------------------------------------------------------------
 Warning -- This program may not be used in any manner that
 competes with the business of Gaussian, Inc. or will provide
 assistance to any competitor of Gaussian, Inc.  The licensee
 of this program is prohibited from giving any competitor of
 Gaussian, Inc. access to this program.  By using this program,
 the user acknowledges that Gaussian, Inc. is engaged in the
 business of creating and licensing software in the field of
 computational chemistry and represents and warrants to the
 licensee that it is not a competitor of Gaussian, Inc. and that
 it will not use this program in any manner prohibited above.
 ---------------------------------------------------------------
  

 Cite this work as:
 Gaussian 09, Revision D.01,
 M. J. Frisch, G. W. Trucks, H. B. Schlegel, G. E. Scuseria, 
 M. A. Robb, J. R. Cheeseman, G. Scalmani, V. Barone, B. Mennucci, 
 G. A. Petersson, H. Nakatsuji, M. Caricato, X. Li, H. P. Hratchian, 
 A. F. Izmaylov, J. Bloino, G. Zheng, J. L. Sonnenberg, M. Hada, 
 M. Ehara, K. Toyota, R. Fukuda, J. Hasegawa, M. Ishida, T. Nakajima, 
 Y. Honda, O. Kitao, H. Nakai, T. Vreven, J. A. Montgomery, Jr., 
 J. E. Peralta, F. Ogliaro, M. Bearpark, J. J. Heyd, E. Brothers, 
 K. N. Kudin, V. N. Staroverov, T. Keith, R. Kobayashi, J. Normand, 
 K. Raghavachari, A. Rendell, J. C. Burant, S. S. Iyengar, J. Tomasi, 
 M. Cossi, N. Rega, J. M. Millam, M. Klene, J. E. Knox, J. B. Cross, 
 V. Bakken, C. Adamo, J. Jaramillo, R. Gomperts, R. E. Stratmann, 
 O. Yazyev, A. J. Austin, R. Cammi, C. Pomelli, J. W. Ochterski, 
 R. L. Martin, K. Morokuma, V. G. Zakrzewski, G. A. Voth, 
 P. Salvador, J. J. Dannenberg, S. Dapprich, A. D. Daniels, 
 O. Farkas, J. B. Foresman, J. V. Ortiz, J. Cioslowski, 
 and D. J. Fox, Gaussian, Inc., Wallingford CT, 2013.
 
 ******************************************
 Gaussian 09:  ES64L-G09RevD.01 24-Apr-2013
                18-Sep-2016 
 ******************************************
 % mem=4GB
 % nprocshared=4
 Will use up to    4 processors via shared memory.
 % chk=A_B_0.chk
 ------------------------------------------------
 # B3LYP/6-31+G* int=ultrafine nosymm pop=nboread
 ------------------------------------------------
 1/38=1/1;
 2/12=2,15=1,17=6,18=5,40=1/2;
 3/5=1,6=6,7=11,11=2,16=1,25=1,30=1,74=-5,75=-5/1,2,3;
 4//1;
 5/5=2,38=5/2;
 6/7=2,8=2,9=2,10=2,28=1,40=2/1,7;
 99/5=1,9=1/99;
 -----
 A_B_0
 -----
 Symbolic Z-matrix:
 Charge =  0 Multiplicity = 1
 C                     0.67275   0.        0. 
 C                    -0.67275   0.        0. 
 H                     1.24262   0.93481   0. 
 H                     1.24262  -0.93481   0. 
 H                    -1.24262   0.93481   0. 
 H                    -1.24262  -0.93481   0. 
 C                     0.67275   0.        5. 
 C                    -0.67275   0.        5. 
 H                     1.24262   0.93481   5. 
 H                     1.24262  -0.93481   5. 
 H                    -1.24262   0.93481   5. 
 H                    -1.24262  -0.93481   5. 
 
                          Input orientation:                          
 ---------------------------------------------------------------------
 Center     Atomic      Atomic             Coordinates (Angstroms)
 Number     Number       Type             X           Y           Z
 ---------------------------------------------------------------------
      1          6           0        0.672749    0.000000    0.000000
      2          6           0       -0.672749    0.000000    0.000000
      3          1           0        1.242623    0.934806    0.000000
      4          1           0        1.242623   -0.934806    0.000000
      5          1           0       -1.242623    0.934806    0.000000
      6          1           0       -1.242623   -0.934806    0.000000
      7          6           0        0.672749    0.000000    5.000000
      8          6           0       -0.672749    0.000000    5.000000
      9          1           0        1.242623    0.934806    5.000000
     10          1           0        1.242623   -0.934806    5.000000
     11          1           0       -1.242623    0.934806    5.000000
     12          1           0       -1.242623   -0.934806    5.000000
 ---------------------------------------------------------------------
                    Distance matrix (angstroms):
                    1          2          3          4          5
     1  C    0.000000
     2  C    1.345498   0.000000
     3  H    1.094814   2.131317   0.000000
     4  H    1.094814   2.131317   1.869612   0.000000
     5  H    2.131317   1.094814   2.485246   3.109967   0.000000
     6  H    2.131317   1.094814   3.109967   2.485246   1.869612
     7  C    5.000000   5.177873   5.118459   5.118459   5.435302
     8  C    5.177873   5.000000   5.435302   5.435302   5.118459
     9  H    5.118459   5.435302   5.000000   5.338113   5.583587
    10  H    5.118459   5.435302   5.338113   5.000000   5.888285
    11  H    5.435302   5.118459   5.583587   5.888285   5.000000
    12  H    5.435302   5.118459   5.888285   5.583587   5.338113
                    6          7          8          9         10
     6  H    0.000000
     7  C    5.435302   0.000000
     8  C    5.118459   1.345498   0.000000
     9  H    5.888285   1.094814   2.131317   0.000000
    10  H    5.583587   1.094814   2.131317   1.869612   0.000000
    11  H    5.338113   2.131317   1.094814   2.485246   3.109967
    12  H    5.000000   2.131317   1.094814   3.109967   2.485246
                   11         12
    11  H    0.000000
    12  H    1.869612   0.000000
 Symmetry turned off by external request.
 Stoichiometry    C4H8
 Framework group  D2H[SG"(C4),X(H8)]
 Deg. of freedom     5
 Full point group                 D2H     NOp   8
 Rotational constants (GHZ):     12.2606665      1.4138973      1.3141569
 Standard basis: 6-31+G(d) (6D, 7F)
    92 basis functions,   160 primitive gaussians,    92 cartesian basis functions
    16 alpha electrons       16 beta electrons
       nuclear repulsion energy        92.2729564194 Hartrees.
 NAtoms=   12 NActive=   12 NUniq=   12 SFac= 1.00D+00 NAtFMM=   60 NAOKFM=F Big=F
 Integral buffers will be    131072 words long.
 Raffenetti 2 integral format.
 Two-electron integral symmetry is turned off.
 One-electron integrals computed using PRISM.
 NBasis=    92 RedAO= T EigKep=  1.44D-04  NBF=    92
 NBsUse=    92 1.00D-06 EigRej= -1.00D+00 NBFU=    92
 ExpMin= 4.38D-02 ExpMax= 3.05D+03 ExpMxC= 4.57D+02 IAcc=3 IRadAn=         5 AccDes= 0.00D+00
 Harris functional with IExCor=  402 and IRadAn=       5 diagonalized for initial guess.
 HarFok:  IExCor=  402 AccDes= 0.00D+00 IRadAn=         5 IDoV= 1 UseB2=F ITyADJ=14
 ICtDFT=  3500011 ScaDFX=  1.000000  1.000000  1.000000  1.000000
 FoFCou: FMM=F IPFlag=           0 FMFlag=      100000 FMFlg1=           0
         NFxFlg=           0 DoJE=T BraDBF=F KetDBF=T FulRan=T
         wScrn=  0.000000 ICntrl=     500 IOpCl=  0 I1Cent=   200000004 NGrid=           0
         NMat0=    1 NMatS0=      1 NMatT0=    0 NMatD0=    1 NMtDS0=    0 NMtDT0=    0
 Symmetry not used in FoFCou.
 Keep R1 ints in memory in canonical form, NReq=10115209.
 Requested convergence on RMS density matrix=1.00D-08 within 128 cycles.
 Requested convergence on MAX density matrix=1.00D-06.
 Requested convergence on             energy=1.00D-06.
 No special actions if energy rises.
 SCF Done:  E(RB3LYP) =  -157.185575634     A.U. after    8 cycles
            NFock=  8  Conv=0.67D-08     -V/T= 2.0119

 **********************************************************************

            Population analysis using the SCF density.

 **********************************************************************

 Alpha  occ. eigenvalues --  -10.19631 -10.19631 -10.19551 -10.19550  -0.75974
 Alpha  occ. eigenvalues --   -0.75960  -0.58233  -0.58218  -0.47053  -0.47036
 Alpha  occ. eigenvalues --   -0.42050  -0.42036  -0.36114  -0.36098  -0.27541
 Alpha  occ. eigenvalues --   -0.27127
 Alpha virt. eigenvalues --   -0.01262  -0.00228   0.01735   0.02597   0.03660
 Alpha virt. eigenvalues --    0.04033   0.04585   0.05921   0.07575   0.08075
 Alpha virt. eigenvalues --    0.08219   0.09623   0.09972   0.11531   0.13219
 Alpha virt. eigenvalues --    0.15299   0.15803   0.16921   0.17323   0.18969
 Alpha virt. eigenvalues --    0.19842   0.23920   0.27173   0.30792   0.34088
 Alpha virt. eigenvalues --    0.34774   0.35209   0.36620   0.57797   0.59078
 Alpha virt. eigenvalues --    0.65887   0.66427   0.68374   0.70828   0.72866
 Alpha virt. eigenvalues --    0.73315   0.76276   0.77813   0.84200   0.86325
 Alpha virt. eigenvalues --    0.89780   0.90964   0.93268   0.94940   0.96074
 Alpha virt. eigenvalues --    0.99860   1.05210   1.08935   1.16823   1.17221
 Alpha virt. eigenvalues --    1.22191   1.22214   1.45016   1.45170   1.54149
 Alpha virt. eigenvalues --    1.54155   1.81896   1.81897   1.88783   1.88811
 Alpha virt. eigenvalues --    2.00203   2.00260   2.11043   2.11139   2.29677
 Alpha virt. eigenvalues --    2.29977   2.37265   2.37432   2.66711   2.66760
 Alpha virt. eigenvalues --    2.70135   2.71007   4.11687   4.12373   4.25296
 Alpha virt. eigenvalues --    4.25557
          Condensed to atoms (all electrons):
               1          2          3          4          5          6
     1  C    5.006610   0.669771   0.382448   0.382448  -0.036491  -0.036491
     2  C    0.669771   5.006610  -0.036491  -0.036491   0.382448   0.382448
     3  H    0.382448  -0.036491   0.508365  -0.033300  -0.006681   0.003969
     4  H    0.382448  -0.036491  -0.033300   0.508365   0.003969  -0.006681
     5  H   -0.036491   0.382448  -0.006681   0.003969   0.508365  -0.033300
     6  H   -0.036491   0.382448   0.003969  -0.006681  -0.033300   0.508365
     7  C   -0.003058  -0.002157   0.000022   0.000022   0.000053   0.000053
     8  C   -0.002157  -0.003058   0.000053   0.000053   0.000022   0.000022
     9  H    0.000022   0.000053   0.000000   0.000000   0.000000   0.000000
    10  H    0.000022   0.000053   0.000000   0.000000   0.000000   0.000000
    11  H    0.000053   0.000022   0.000000   0.000000   0.000000   0.000000
    12  H    0.000053   0.000022   0.000000   0.000000   0.000000   0.000000
               7          8          9         10         11         12
     1  C   -0.003058  -0.002157   0.000022   0.000022   0.000053   0.000053
     2  C   -0.002157  -0.003058   0.000053   0.000053   0.000022   0.000022
     3  H    0.000022   0.000053   0.000000   0.000000   0.000000   0.000000
     4  H    0.000022   0.000053   0.000000   0.000000   0.000000   0.000000
     5  H    0.000053   0.000022   0.000000   0.000000   0.000000   0.000000
     6  H    0.000053   0.000022   0.000000   0.000000   0.000000   0.000000
     7  C    5.006610   0.669771   0.382448   0.382448  -0.036491  -0.036491
     8  C    0.669771   5.006610  -0.036491  -0.036491   0.382448   0.382448
     9  H    0.382448  -0.036491   0.508365  -0.033300  -0.006681   0.003969
    10  H    0.382448  -0.036491  -0.033300   0.508365   0.003969  -0.006681
    11  H   -0.036491   0.382448  -0.006681   0.003969   0.508365  -0.033300
    12  H   -0.036491   0.382448   0.003969  -0.006681  -0.033300   0.508365
 Mulliken charges:
               1
     1  C   -0.363230
     2  C   -0.363230
     3  H    0.181615
     4  H    0.181615
     5  H    0.181615
     6  H    0.181615
     7  C   -0.363230
     8  C   -0.363230
     9  H    0.181615
    10  H    0.181615
    11  H    0.181615
    12  H    0.181615
 Sum of Mulliken charges =   0.00000
 Mulliken charges with hydrogens summed into heavy atoms:
               1
     1  C    0.000000
     2  C    0.000000
     7  C    0.000000
     8  C    0.000000
 Electronic spatial extent (au):  <R**2>=           1597.6406
 Charge=              0.0000 electrons
 Dipole moment (field-independent basis, Debye):
    X=              0.0000    Y=              0.0000    Z=              0.0000  Tot=              0.0000
 Quadrupole moment (field-independent basis, Debye-Ang):
   XX=            -24.9185   YY=            -24.8488   ZZ=            -32.7467
   XY=              0.0000   XZ=              0.0000   YZ=              0.0000
 Traceless Quadrupole moment (field-independent basis, Debye-Ang):
   XX=              2.5862   YY=              2.6559   ZZ=             -5.2421
   XY=              0.0000   XZ=              0.0000   YZ=              0.0000
 Octapole moment (field-independent basis, Debye-Ang**2):
  XXX=              0.0000  YYY=              0.0000  ZZZ=           -245.6006  XYY=              0.0000
  XXY=              0.0000  XXZ=            -62.2962  XZZ=              0.0000  YZZ=              0.0000
  YYZ=            -62.1220  XYZ=              0.0000
 Hexadecapole moment (field-independent basis, Debye-Ang**3):
 XXXX=           -144.0747 YYYY=            -57.5298 ZZZZ=          -2493.2879 XXXY=              0.0000
 XXXZ=              0.0000 YYYX=              0.0000 YYYZ=              0.0000 ZZZX=              0.0000
 ZZZY=              0.0000 XXYY=            -28.6015 XXZZ=           -345.8470 YYZZ=           -329.4933
 XXYZ=              0.0000 YYXZ=              0.0000 ZZXY=              0.0000
 N-N= 9.227295641942D+01 E-N=-5.469487522688D+02  KE= 1.553420555867D+02
 ******************************Gaussian NBO Version 3.1******************************
             N A T U R A L   A T O M I C   O R B I T A L   A N D
          N A T U R A L   B O N D   O R B I T A L   A N A L Y S I S
 ******************************Gaussian NBO Version 3.1******************************

       /RESON  / : Allow strongly delocalized NBO set
       /FAO    / : Write the AO Fock matrix to LFN 44
       /SAO    / : Write the AO overlap matrix to LFN 43

 Analyzing the SCF density

 Job title: A_B_0                                                           

 Storage needed:     25928 in NPA,     34295 in NBO ( 536870096 available)


 NATURAL POPULATIONS:  Natural atomic orbital occupancies 
                                                          
   NAO  Atom  No  lang   Type(AO)    Occupancy      Energy
 ----------------------------------------------------------
     1    C    1  S      Cor( 1S)     1.99926     -10.06318
     2    C    1  S      Val( 2S)     1.08265      -0.24961
     3    C    1  S      Ryd( 4S)     0.00148       0.85221
     4    C    1  S      Ryd( 3S)     0.00024       0.62836
     5    C    1  S      Ryd( 5S)     0.00000       3.94864
     6    C    1  px     Val( 2p)     1.13200      -0.05388
     7    C    1  px     Ryd( 4p)     0.00374       0.42009
     8    C    1  px     Ryd( 3p)     0.00010       0.34482
     9    C    1  py     Val( 2p)     1.21710      -0.05151
    10    C    1  py     Ryd( 4p)     0.00332       0.83010
    11    C    1  py     Ryd( 3p)     0.00030       0.35895
    12    C    1  pz     Val( 2p)     0.99636      -0.11616
    13    C    1  pz     Ryd( 4p)     0.00270       0.44066
    14    C    1  pz     Ryd( 3p)     0.00028       0.39560
    15    C    1  dxy    Ryd( 3d)     0.00104       2.24788
    16    C    1  dxz    Ryd( 3d)     0.00063       1.90464
    17    C    1  dyz    Ryd( 3d)     0.00000       1.68020
    18    C    1  dx2y2  Ryd( 3d)     0.00059       2.29770
    19    C    1  dz2    Ryd( 3d)     0.00057       2.10732

    20    C    2  S      Cor( 1S)     1.99926     -10.06318
    21    C    2  S      Val( 2S)     1.08265      -0.24961
    22    C    2  S      Ryd( 4S)     0.00148       0.85221
    23    C    2  S      Ryd( 3S)     0.00024       0.62836
    24    C    2  S      Ryd( 5S)     0.00000       3.94864
    25    C    2  px     Val( 2p)     1.13200      -0.05388
    26    C    2  px     Ryd( 4p)     0.00374       0.42009
    27    C    2  px     Ryd( 3p)     0.00010       0.34482
    28    C    2  py     Val( 2p)     1.21710      -0.05151
    29    C    2  py     Ryd( 4p)     0.00332       0.83010
    30    C    2  py     Ryd( 3p)     0.00030       0.35895
    31    C    2  pz     Val( 2p)     0.99636      -0.11616
    32    C    2  pz     Ryd( 4p)     0.00270       0.44066
    33    C    2  pz     Ryd( 3p)     0.00028       0.39560
    34    C    2  dxy    Ryd( 3d)     0.00104       2.24788
    35    C    2  dxz    Ryd( 3d)     0.00063       1.90464
    36    C    2  dyz    Ryd( 3d)     0.00000       1.68020
    37    C    2  dx2y2  Ryd( 3d)     0.00059       2.29770
    38    C    2  dz2    Ryd( 3d)     0.00057       2.10732

    39    H    3  S      Val( 1S)     0.77795       0.08115
    40    H    3  S      Ryd( 2S)     0.00088       0.61650

    41    H    4  S      Val( 1S)     0.77795       0.08115
    42    H    4  S      Ryd( 2S)     0.00088       0.61650

    43    H    5  S      Val( 1S)     0.77795       0.08115
    44    H    5  S      Ryd( 2S)     0.00088       0.61650

    45    H    6  S      Val( 1S)     0.77795       0.08115
    46    H    6  S      Ryd( 2S)     0.00088       0.61650

    47    C    7  S      Cor( 1S)     1.99926     -10.06318
    48    C    7  S      Val( 2S)     1.08265      -0.24961
    49    C    7  S      Ryd( 4S)     0.00148       0.85221
    50    C    7  S      Ryd( 3S)     0.00024       0.62836
    51    C    7  S      Ryd( 5S)     0.00000       3.94864
    52    C    7  px     Val( 2p)     1.13200      -0.05388
    53    C    7  px     Ryd( 4p)     0.00374       0.42009
    54    C    7  px     Ryd( 3p)     0.00010       0.34482
    55    C    7  py     Val( 2p)     1.21710      -0.05151
    56    C    7  py     Ryd( 4p)     0.00332       0.83010
    57    C    7  py     Ryd( 3p)     0.00030       0.35895
    58    C    7  pz     Val( 2p)     0.99636      -0.11616
    59    C    7  pz     Ryd( 4p)     0.00270       0.44066
    60    C    7  pz     Ryd( 3p)     0.00028       0.39560
    61    C    7  dxy    Ryd( 3d)     0.00104       2.24788
    62    C    7  dxz    Ryd( 3d)     0.00063       1.90464
    63    C    7  dyz    Ryd( 3d)     0.00000       1.68020
    64    C    7  dx2y2  Ryd( 3d)     0.00059       2.29770
    65    C    7  dz2    Ryd( 3d)     0.00057       2.10732

    66    C    8  S      Cor( 1S)     1.99926     -10.06318
    67    C    8  S      Val( 2S)     1.08265      -0.24961
    68    C    8  S      Ryd( 4S)     0.00148       0.85221
    69    C    8  S      Ryd( 3S)     0.00024       0.62836
    70    C    8  S      Ryd( 5S)     0.00000       3.94864
    71    C    8  px     Val( 2p)     1.13200      -0.05388
    72    C    8  px     Ryd( 4p)     0.00374       0.42009
    73    C    8  px     Ryd( 3p)     0.00010       0.34482
    74    C    8  py     Val( 2p)     1.21710      -0.05151
    75    C    8  py     Ryd( 4p)     0.00332       0.83010
    76    C    8  py     Ryd( 3p)     0.00030       0.35895
    77    C    8  pz     Val( 2p)     0.99636      -0.11616
    78    C    8  pz     Ryd( 4p)     0.00270       0.44066
    79    C    8  pz     Ryd( 3p)     0.00028       0.39560
    80    C    8  dxy    Ryd( 3d)     0.00104       2.24788
    81    C    8  dxz    Ryd( 3d)     0.00063       1.90464
    82    C    8  dyz    Ryd( 3d)     0.00000       1.68020
    83    C    8  dx2y2  Ryd( 3d)     0.00059       2.29770
    84    C    8  dz2    Ryd( 3d)     0.00057       2.10732

    85    H    9  S      Val( 1S)     0.77795       0.08115
    86    H    9  S      Ryd( 2S)     0.00088       0.61650

    87    H   10  S      Val( 1S)     0.77795       0.08115
    88    H   10  S      Ryd( 2S)     0.00088       0.61650

    89    H   11  S      Val( 1S)     0.77795       0.08115
    90    H   11  S      Ryd( 2S)     0.00088       0.61650

    91    H   12  S      Val( 1S)     0.77795       0.08115
    92    H   12  S      Ryd( 2S)     0.00088       0.61650

 WARNING:  Population inversion found on atom  C    1
           Population inversion found on atom  C    2
           Population inversion found on atom  C    7
           Population inversion found on atom  C    8


 Summary of Natural Population Analysis:                  
                                                          
                                       Natural Population 
                Natural  -----------------------------------------------
    Atom  No    Charge         Core      Valence    Rydberg      Total
 -----------------------------------------------------------------------
      C    1   -0.44234      1.99926     4.42811    0.01497     6.44234
      C    2   -0.44234      1.99926     4.42811    0.01497     6.44234
      H    3    0.22117      0.00000     0.77795    0.00088     0.77883
      H    4    0.22117      0.00000     0.77795    0.00088     0.77883
      H    5    0.22117      0.00000     0.77795    0.00088     0.77883
      H    6    0.22117      0.00000     0.77795    0.00088     0.77883
      C    7   -0.44234      1.99926     4.42811    0.01497     6.44234
      C    8   -0.44234      1.99926     4.42811    0.01497     6.44234
      H    9    0.22117      0.00000     0.77795    0.00088     0.77883
      H   10    0.22117      0.00000     0.77795    0.00088     0.77883
      H   11    0.22117      0.00000     0.77795    0.00088     0.77883
      H   12    0.22117      0.00000     0.77795    0.00088     0.77883
 =======================================================================
   * Total *    0.00000      7.99704    23.93601    0.06695    32.00000

                                 Natural Population      
 --------------------------------------------------------
   Core                       7.99704 ( 99.9631% of   8)
   Valence                   23.93601 ( 99.7334% of  24)
   Natural Minimal Basis     31.93305 ( 99.7908% of  32)
   Natural Rydberg Basis      0.06695 (  0.2092% of  32)
 --------------------------------------------------------

    Atom  No          Natural Electron Configuration
 ----------------------------------------------------------------------------
      C    1      [core]2S( 1.08)2p( 3.35)4p( 0.01)
      C    2      [core]2S( 1.08)2p( 3.35)4p( 0.01)
      H    3            1S( 0.78)
      H    4            1S( 0.78)
      H    5            1S( 0.78)
      H    6            1S( 0.78)
      C    7      [core]2S( 1.08)2p( 3.35)4p( 0.01)
      C    8      [core]2S( 1.08)2p( 3.35)4p( 0.01)
      H    9            1S( 0.78)
      H   10            1S( 0.78)
      H   11            1S( 0.78)
      H   12            1S( 0.78)


 NATURAL BOND ORBITAL ANALYSIS:

                       Occupancies       Lewis Structure    Low   High
           Occ.    -------------------  -----------------   occ   occ
  Cycle   Thresh.   Lewis   Non-Lewis     CR  BD  3C  LP    (L)   (NL)   Dev
 =============================================================================
   1(1)    1.90    31.88817   0.11183      4  12   0   0     0      0    0.04
 -----------------------------------------------------------------------------

 Structure accepted: No low occupancy Lewis orbitals

 --------------------------------------------------------
   Core                      7.99706 ( 99.963% of   8)
   Valence Lewis            23.89111 ( 99.546% of  24)
  ==================       ============================
   Total Lewis              31.88817 ( 99.651% of  32)
  -----------------------------------------------------
   Valence non-Lewis         0.08257 (  0.258% of  32)
   Rydberg non-Lewis         0.02926 (  0.091% of  32)
  ==================       ============================
   Total non-Lewis           0.11183 (  0.349% of  32)
 --------------------------------------------------------


       (Occupancy)   Bond orbital/ Coefficients/ Hybrids
 ---------------------------------------------------------------------------------
     1. (1.99872) BD ( 1) C   1 - C   2  
                ( 50.00%)   0.7071* C   1 s( 19.68%)p 4.08( 80.27%)d 0.00(  0.05%)
                                            0.0000  0.4432 -0.0177 -0.0053  0.0003
                                           -0.5527  0.0330  0.0022  0.0000  0.0000
                                            0.0000 -0.7034 -0.0364  0.0111  0.0000
                                            0.0178  0.0000  0.0121 -0.0081
                ( 50.00%)   0.7071* C   2 s( 19.68%)p 4.08( 80.27%)d 0.00(  0.05%)
                                            0.0000  0.4432 -0.0177 -0.0053  0.0003
                                            0.5527 -0.0330 -0.0022  0.0000  0.0000
                                            0.0000 -0.7034 -0.0364  0.0111  0.0000
                                           -0.0178  0.0000  0.0121 -0.0081
     2. (1.99864) BD ( 2) C   1 - C   2  
                ( 50.00%)   0.7071* C   1 s( 19.45%)p 4.14( 80.50%)d 0.00(  0.05%)
                                            0.0000  0.4405 -0.0211 -0.0006 -0.0004
                                           -0.5484  0.0334  0.0010  0.0000  0.0000
                                            0.0000  0.7083  0.0364 -0.0103  0.0000
                                           -0.0178  0.0000  0.0119 -0.0081
                ( 50.00%)   0.7071* C   2 s( 19.45%)p 4.14( 80.50%)d 0.00(  0.05%)
                                            0.0000  0.4405 -0.0211 -0.0006 -0.0004
                                            0.5484 -0.0334 -0.0010  0.0000  0.0000
                                            0.0000  0.7083  0.0364 -0.0103  0.0000
                                            0.0178  0.0000  0.0119 -0.0081
     3. (1.98705) BD ( 1) C   1 - H   3  
                ( 61.14%)   0.7819* C   1 s( 30.46%)p 2.28( 69.48%)d 0.00(  0.06%)
                                           -0.0002  0.5518  0.0122  0.0020  0.0000
                                            0.4415 -0.0150 -0.0010  0.7068  0.0037
                                            0.0104 -0.0002 -0.0005  0.0010  0.0180
                                            0.0000 -0.0001 -0.0106 -0.0136
                ( 38.86%)   0.6233* H   3 s(100.00%)
                                            1.0000  0.0023
     4. (1.98705) BD ( 1) C   1 - H   4  
                ( 61.14%)   0.7819* C   1 s( 30.46%)p 2.28( 69.48%)d 0.00(  0.06%)
                                           -0.0002  0.5518  0.0122  0.0020  0.0000
                                            0.4415 -0.0150 -0.0010 -0.7068 -0.0037
                                           -0.0104 -0.0002 -0.0005  0.0010 -0.0180
                                            0.0000  0.0001 -0.0106 -0.0136
                ( 38.86%)   0.6233* H   4 s(100.00%)
                                            1.0000  0.0023
     5. (1.98705) BD ( 1) C   2 - H   5  
                ( 61.14%)   0.7819* C   2 s( 30.46%)p 2.28( 69.48%)d 0.00(  0.06%)
                                            0.0002 -0.5518 -0.0122 -0.0020  0.0000
                                            0.4415 -0.0150 -0.0010 -0.7068 -0.0037
                                           -0.0104  0.0002  0.0005 -0.0010  0.0180
                                            0.0000  0.0001  0.0106  0.0136
                ( 38.86%)   0.6233* H   5 s(100.00%)
                                           -1.0000 -0.0023
     6. (1.98705) BD ( 1) C   2 - H   6  
                ( 61.14%)   0.7819* C   2 s( 30.46%)p 2.28( 69.48%)d 0.00(  0.06%)
                                            0.0002 -0.5518 -0.0122 -0.0020  0.0000
                                            0.4415 -0.0150 -0.0010  0.7068  0.0037
                                            0.0104  0.0002  0.0005 -0.0010 -0.0180
                                            0.0000 -0.0001  0.0106  0.0136
                ( 38.86%)   0.6233* H   6 s(100.00%)
                                           -1.0000 -0.0023
     7. (1.99872) BD ( 1) C   7 - C   8  
                ( 50.00%)   0.7071* C   7 s( 19.68%)p 4.08( 80.27%)d 0.00(  0.05%)
                                            0.0000  0.4432 -0.0177 -0.0053  0.0003
                                           -0.5527  0.0330  0.0022  0.0000  0.0000
                                            0.0000  0.7034  0.0364 -0.0111  0.0000
                                           -0.0178  0.0000  0.0121 -0.0081
                ( 50.00%)   0.7071* C   8 s( 19.68%)p 4.08( 80.27%)d 0.00(  0.05%)
                                            0.0000  0.4432 -0.0177 -0.0053  0.0003
                                            0.5527 -0.0330 -0.0022  0.0000  0.0000
                                            0.0000  0.7034  0.0364 -0.0111  0.0000
                                            0.0178  0.0000  0.0121 -0.0081
     8. (1.99864) BD ( 2) C   7 - C   8  
                ( 50.00%)   0.7071* C   7 s( 19.45%)p 4.14( 80.50%)d 0.00(  0.05%)
                                            0.0000 -0.4405  0.0211  0.0006  0.0004
                                            0.5484 -0.0334 -0.0010  0.0000  0.0000
                                            0.0000  0.7083  0.0364 -0.0103  0.0000
                                           -0.0178  0.0000 -0.0119  0.0081
                ( 50.00%)   0.7071* C   8 s( 19.45%)p 4.14( 80.50%)d 0.00(  0.05%)
                                            0.0000 -0.4405  0.0211  0.0006  0.0004
                                           -0.5484  0.0334  0.0010  0.0000  0.0000
                                            0.0000  0.7083  0.0364 -0.0103  0.0000
                                            0.0178  0.0000 -0.0119  0.0081
     9. (1.98705) BD ( 1) C   7 - H   9  
                ( 61.14%)   0.7819* C   7 s( 30.46%)p 2.28( 69.48%)d 0.00(  0.06%)
                                           -0.0002  0.5518  0.0122  0.0020  0.0000
                                            0.4415 -0.0150 -0.0010  0.7068  0.0037
                                            0.0104  0.0002  0.0005 -0.0010  0.0180
                                            0.0000  0.0001 -0.0106 -0.0136
                ( 38.86%)   0.6233* H   9 s(100.00%)
                                            1.0000  0.0023
    10. (1.98705) BD ( 1) C   7 - H  10  
                ( 61.14%)   0.7819* C   7 s( 30.46%)p 2.28( 69.48%)d 0.00(  0.06%)
                                           -0.0002  0.5518  0.0122  0.0020  0.0000
                                            0.4415 -0.0150 -0.0010 -0.7068 -0.0037
                                           -0.0104  0.0002  0.0005 -0.0010 -0.0180
                                            0.0000 -0.0001 -0.0106 -0.0136
                ( 38.86%)   0.6233* H  10 s(100.00%)
                                            1.0000  0.0023
    11. (1.98705) BD ( 1) C   8 - H  11  
                ( 61.14%)   0.7819* C   8 s( 30.46%)p 2.28( 69.48%)d 0.00(  0.06%)
                                            0.0002 -0.5518 -0.0122 -0.0020  0.0000
                                            0.4415 -0.0150 -0.0010 -0.7068 -0.0037
                                           -0.0104 -0.0002 -0.0005  0.0010  0.0180
                                            0.0000 -0.0001  0.0106  0.0136
                ( 38.86%)   0.6233* H  11 s(100.00%)
                                           -1.0000 -0.0023
    12. (1.98705) BD ( 1) C   8 - H  12  
                ( 61.14%)   0.7819* C   8 s( 30.46%)p 2.28( 69.48%)d 0.00(  0.06%)
                                            0.0002 -0.5518 -0.0122 -0.0020  0.0000
                                            0.4415 -0.0150 -0.0010  0.7068  0.0037
                                            0.0104 -0.0002 -0.0005  0.0010 -0.0180
                                            0.0000  0.0001  0.0106  0.0136
                ( 38.86%)   0.6233* H  12 s(100.00%)
                                           -1.0000 -0.0023
    13. (1.99927) CR ( 1) C   1           s(100.00%)p 0.00(  0.00%)
                                            1.0000  0.0002  0.0000  0.0000  0.0000
                                            0.0002  0.0000  0.0000  0.0000  0.0000
                                            0.0000  0.0000  0.0000  0.0000  0.0000
                                            0.0000  0.0000  0.0000  0.0000
    14. (1.99927) CR ( 1) C   2           s(100.00%)p 0.00(  0.00%)
                                            1.0000  0.0002  0.0000  0.0000  0.0000
                                           -0.0002  0.0000  0.0000  0.0000  0.0000
                                            0.0000  0.0000  0.0000  0.0000  0.0000
                                            0.0000  0.0000  0.0000  0.0000
    15. (1.99927) CR ( 1) C   7           s(100.00%)p 0.00(  0.00%)
                                            1.0000  0.0002  0.0000  0.0000  0.0000
                                            0.0002  0.0000  0.0000  0.0000  0.0000
                                            0.0000  0.0000  0.0000  0.0000  0.0000
                                            0.0000  0.0000  0.0000  0.0000
    16. (1.99927) CR ( 1) C   8           s(100.00%)p 0.00(  0.00%)
                                            1.0000  0.0002  0.0000  0.0000  0.0000
                                           -0.0002  0.0000  0.0000  0.0000  0.0000
                                            0.0000  0.0000  0.0000  0.0000  0.0000
                                            0.0000  0.0000  0.0000  0.0000
    17. (0.00370) RY*( 1) C   1           s(  0.00%)p 1.00( 91.21%)d 0.10(  8.79%)
                                            0.0000  0.0000  0.0000  0.0000  0.0000
                                            0.0000  0.0000  0.0000 -0.0141  0.9487
                                            0.1087  0.0000  0.0000  0.0000  0.2966
                                            0.0000  0.0001  0.0000  0.0000
    18. (0.00158) RY*( 2) C   1           s( 28.00%)p 2.56( 71.82%)d 0.01(  0.18%)
                                            0.0000  0.0113  0.4765 -0.2293 -0.0139
                                           -0.0562 -0.8155 -0.2229  0.0000  0.0000
                                            0.0000  0.0017  0.0127  0.0128  0.0000
                                           -0.0003  0.0000 -0.0185 -0.0384
    19. (0.00018) RY*( 3) C   1           s( 50.57%)p 0.96( 48.46%)d 0.02(  0.98%)
                                            0.0000  0.0035 -0.2560  0.6595 -0.0719
                                           -0.0110 -0.2735 -0.2261  0.0000  0.0000
                                            0.0000  0.0258 -0.4503  0.3938  0.0000
                                           -0.0169  0.0000 -0.0718  0.0657
    20. (0.00007) RY*( 4) C   1           s( 50.11%)p 0.86( 43.01%)d 0.14(  6.88%)
    21. (0.00000) RY*( 5) C   1           s(  0.08%)p99.99( 99.91%)d 0.06(  0.00%)
    22. (0.00000) RY*( 6) C   1           s( 98.81%)p 0.01(  1.15%)d 0.00(  0.03%)
    23. (0.00000) RY*( 7) C   1           s(  0.00%)p 1.00(100.00%)d 0.00(  0.00%)
    24. (0.00000) RY*( 8) C   1           s( 60.27%)p 0.66( 39.57%)d 0.00(  0.16%)
    25. (0.00001) RY*( 9) C   1           s(  6.06%)p15.50( 93.93%)d 0.00(  0.00%)
    26. (0.00000) RY*(10) C   1           s(  0.00%)p 1.00(  8.86%)d10.29( 91.14%)
    27. (0.00000) RY*(11) C   1           s(  0.01%)p 1.00(  0.12%)d99.99( 99.87%)
    28. (0.00000) RY*(12) C   1           s(  0.00%)p 0.00(  0.00%)d 1.00(100.00%)
    29. (0.00000) RY*(13) C   1           s(  2.01%)p 0.37(  0.74%)d48.27( 97.24%)
    30. (0.00001) RY*(14) C   1           s(  4.03%)p 0.37(  1.49%)d23.45( 94.49%)
    31. (0.00370) RY*( 1) C   2           s(  0.00%)p 1.00( 91.21%)d 0.10(  8.79%)
                                            0.0000  0.0000  0.0000  0.0000  0.0000
                                            0.0000  0.0000  0.0000 -0.0141  0.9487
                                            0.1087  0.0000  0.0000  0.0000 -0.2966
                                            0.0000  0.0001  0.0000  0.0000
    32. (0.00158) RY*( 2) C   2           s( 28.00%)p 2.56( 71.82%)d 0.01(  0.18%)
                                            0.0000  0.0113  0.4765 -0.2293 -0.0139
                                            0.0562  0.8155  0.2229  0.0000  0.0000
                                            0.0000  0.0017  0.0127  0.0128  0.0000
                                            0.0003  0.0000 -0.0185 -0.0384
    33. (0.00018) RY*( 3) C   2           s( 50.57%)p 0.96( 48.46%)d 0.02(  0.98%)
                                            0.0000  0.0035 -0.2560  0.6595 -0.0719
                                            0.0110  0.2735  0.2261  0.0000  0.0000
                                            0.0000  0.0258 -0.4503  0.3938  0.0000
                                            0.0169  0.0000 -0.0718  0.0657
    34. (0.00007) RY*( 4) C   2           s( 50.11%)p 0.86( 43.01%)d 0.14(  6.88%)
    35. (0.00000) RY*( 5) C   2           s(  0.08%)p99.99( 99.91%)d 0.06(  0.00%)
    36. (0.00000) RY*( 6) C   2           s( 98.81%)p 0.01(  1.15%)d 0.00(  0.03%)
    37. (0.00000) RY*( 7) C   2           s(  0.00%)p 1.00(100.00%)d 0.00(  0.00%)
    38. (0.00000) RY*( 8) C   2           s( 60.27%)p 0.66( 39.57%)d 0.00(  0.16%)
    39. (0.00001) RY*( 9) C   2           s(  6.06%)p15.50( 93.93%)d 0.00(  0.00%)
    40. (0.00000) RY*(10) C   2           s(  0.00%)p 1.00(  8.86%)d10.29( 91.14%)
    41. (0.00000) RY*(11) C   2           s(  0.01%)p 1.00(  0.12%)d99.99( 99.87%)
    42. (0.00000) RY*(12) C   2           s(  0.00%)p 0.00(  0.00%)d 1.00(100.00%)
    43. (0.00000) RY*(13) C   2           s(  2.01%)p 0.37(  0.74%)d48.27( 97.24%)
    44. (0.00001) RY*(14) C   2           s(  4.03%)p 0.37(  1.49%)d23.45( 94.49%)
    45. (0.00088) RY*( 1) H   3           s(100.00%)
                                           -0.0023  1.0000
    46. (0.00088) RY*( 1) H   4           s(100.00%)
                                           -0.0023  1.0000
    47. (0.00088) RY*( 1) H   5           s(100.00%)
                                           -0.0023  1.0000
    48. (0.00088) RY*( 1) H   6           s(100.00%)
                                           -0.0023  1.0000
    49. (0.00370) RY*( 1) C   7           s(  0.00%)p 1.00( 91.21%)d 0.10(  8.79%)
                                            0.0000  0.0000  0.0000  0.0000  0.0000
                                            0.0000  0.0000  0.0000 -0.0141  0.9487
                                            0.1087  0.0000  0.0000  0.0000  0.2966
                                            0.0000 -0.0001  0.0000  0.0000
    50. (0.00158) RY*( 2) C   7           s( 28.00%)p 2.56( 71.82%)d 0.01(  0.18%)
                                            0.0000  0.0113  0.4765 -0.2293 -0.0139
                                           -0.0562 -0.8155 -0.2229  0.0000  0.0000
                                            0.0000 -0.0017 -0.0127 -0.0128  0.0000
                                            0.0003  0.0000 -0.0185 -0.0384
    51. (0.00018) RY*( 3) C   7           s( 50.57%)p 0.96( 48.46%)d 0.02(  0.98%)
                                            0.0000  0.0035 -0.2560  0.6595 -0.0719
                                           -0.0110 -0.2735 -0.2261  0.0000  0.0000
                                            0.0000 -0.0258  0.4503 -0.3938  0.0000
                                            0.0169  0.0000 -0.0718  0.0657
    52. (0.00007) RY*( 4) C   7           s( 50.11%)p 0.86( 43.01%)d 0.14(  6.88%)
    53. (0.00000) RY*( 5) C   7           s(  0.08%)p99.99( 99.91%)d 0.06(  0.00%)
    54. (0.00000) RY*( 6) C   7           s( 98.81%)p 0.01(  1.15%)d 0.00(  0.03%)
    55. (0.00000) RY*( 7) C   7           s(  0.00%)p 1.00(100.00%)d 0.00(  0.00%)
    56. (0.00000) RY*( 8) C   7           s( 60.27%)p 0.66( 39.57%)d 0.00(  0.16%)
    57. (0.00001) RY*( 9) C   7           s(  6.06%)p15.50( 93.93%)d 0.00(  0.00%)
    58. (0.00000) RY*(10) C   7           s(  0.00%)p 1.00(  8.86%)d10.29( 91.14%)
    59. (0.00000) RY*(11) C   7           s(  0.01%)p 1.00(  0.12%)d99.99( 99.87%)
    60. (0.00000) RY*(12) C   7           s(  0.00%)p 0.00(  0.00%)d 1.00(100.00%)
    61. (0.00000) RY*(13) C   7           s(  2.01%)p 0.37(  0.74%)d48.27( 97.24%)
    62. (0.00001) RY*(14) C   7           s(  4.03%)p 0.37(  1.49%)d23.45( 94.49%)
    63. (0.00370) RY*( 1) C   8           s(  0.00%)p 1.00( 91.21%)d 0.10(  8.79%)
                                            0.0000  0.0000  0.0000  0.0000  0.0000
                                            0.0000  0.0000  0.0000 -0.0141  0.9487
                                            0.1087  0.0000  0.0000  0.0000 -0.2966
                                            0.0000 -0.0001  0.0000  0.0000
    64. (0.00158) RY*( 2) C   8           s( 28.00%)p 2.56( 71.82%)d 0.01(  0.18%)
                                            0.0000  0.0113  0.4765 -0.2293 -0.0139
                                            0.0562  0.8155  0.2229  0.0000  0.0000
                                            0.0000 -0.0017 -0.0127 -0.0128  0.0000
                                           -0.0003  0.0000 -0.0185 -0.0384
    65. (0.00018) RY*( 3) C   8           s( 50.57%)p 0.96( 48.46%)d 0.02(  0.98%)
                                            0.0000  0.0035 -0.2560  0.6595 -0.0719
                                            0.0110  0.2735  0.2261  0.0000  0.0000
                                            0.0000 -0.0258  0.4503 -0.3938  0.0000
                                           -0.0169  0.0000 -0.0718  0.0657
    66. (0.00007) RY*( 4) C   8           s( 50.11%)p 0.86( 43.01%)d 0.14(  6.88%)
    67. (0.00000) RY*( 5) C   8           s(  0.08%)p99.99( 99.91%)d 0.06(  0.00%)
    68. (0.00000) RY*( 6) C   8           s( 98.81%)p 0.01(  1.15%)d 0.00(  0.03%)
    69. (0.00000) RY*( 7) C   8           s(  0.00%)p 1.00(100.00%)d 0.00(  0.00%)
    70. (0.00000) RY*( 8) C   8           s( 60.27%)p 0.66( 39.57%)d 0.00(  0.16%)
    71. (0.00001) RY*( 9) C   8           s(  6.06%)p15.50( 93.93%)d 0.00(  0.00%)
    72. (0.00000) RY*(10) C   8           s(  0.00%)p 1.00(  8.86%)d10.29( 91.14%)
    73. (0.00000) RY*(11) C   8           s(  0.01%)p 1.00(  0.12%)d99.99( 99.87%)
    74. (0.00000) RY*(12) C   8           s(  0.00%)p 0.00(  0.00%)d 1.00(100.00%)
    75. (0.00000) RY*(13) C   8           s(  2.01%)p 0.37(  0.74%)d48.27( 97.24%)
    76. (0.00001) RY*(14) C   8           s(  4.03%)p 0.37(  1.49%)d23.45( 94.49%)
    77. (0.00088) RY*( 1) H   9           s(100.00%)
                                           -0.0023  1.0000
    78. (0.00088) RY*( 1) H  10           s(100.00%)
                                           -0.0023  1.0000
    79. (0.00088) RY*( 1) H  11           s(100.00%)
                                           -0.0023  1.0000
    80. (0.00088) RY*( 1) H  12           s(100.00%)
                                           -0.0023  1.0000
    81. (0.00145) BD*( 1) C   1 - C   2  
                ( 50.00%)   0.7071* C   1 s( 19.68%)p 4.08( 80.27%)d 0.00(  0.05%)
                                            0.0000  0.4432 -0.0177 -0.0053  0.0003
                                           -0.5527  0.0330  0.0022  0.0000  0.0000
                                            0.0000 -0.7034 -0.0364  0.0111  0.0000
                                            0.0178  0.0000  0.0121 -0.0081
                ( 50.00%)  -0.7071* C   2 s( 19.68%)p 4.08( 80.27%)d 0.00(  0.05%)
                                            0.0000  0.4432 -0.0177 -0.0053  0.0003
                                            0.5527 -0.0330 -0.0022  0.0000  0.0000
                                            0.0000 -0.7034 -0.0364  0.0111  0.0000
                                           -0.0178  0.0000  0.0121 -0.0081
    82. (0.00146) BD*( 2) C   1 - C   2  
                ( 50.00%)   0.7071* C   1 s( 19.45%)p 4.14( 80.50%)d 0.00(  0.05%)
                                            0.0000  0.4405 -0.0211 -0.0006 -0.0004
                                           -0.5484  0.0334  0.0010  0.0000  0.0000
                                            0.0000  0.7083  0.0364 -0.0103  0.0000
                                           -0.0178  0.0000  0.0119 -0.0081
                ( 50.00%)  -0.7071* C   2 s( 19.45%)p 4.14( 80.50%)d 0.00(  0.05%)
                                            0.0000  0.4405 -0.0211 -0.0006 -0.0004
                                            0.5484 -0.0334 -0.0010  0.0000  0.0000
                                            0.0000  0.7083  0.0364 -0.0103  0.0000
                                            0.0178  0.0000  0.0119 -0.0081
    83. (0.00959) BD*( 1) C   1 - H   3  
                ( 38.86%)   0.6233* C   1 s( 30.46%)p 2.28( 69.48%)d 0.00(  0.06%)
                                            0.0002 -0.5518 -0.0122 -0.0020  0.0000
                                           -0.4415  0.0150  0.0010 -0.7068 -0.0037
                                           -0.0104  0.0002  0.0005 -0.0010 -0.0180
                                            0.0000  0.0001  0.0106  0.0136
                ( 61.14%)  -0.7819* H   3 s(100.00%)
                                           -1.0000 -0.0023
    84. (0.00959) BD*( 1) C   1 - H   4  
                ( 38.86%)   0.6233* C   1 s( 30.46%)p 2.28( 69.48%)d 0.00(  0.06%)
                                            0.0002 -0.5518 -0.0122 -0.0020  0.0000
                                           -0.4415  0.0150  0.0010  0.7068  0.0037
                                            0.0104  0.0002  0.0005 -0.0010  0.0180
                                            0.0000 -0.0001  0.0106  0.0136
                ( 61.14%)  -0.7819* H   4 s(100.00%)
                                           -1.0000 -0.0023
    85. (0.00959) BD*( 1) C   2 - H   5  
                ( 38.86%)   0.6233* C   2 s( 30.46%)p 2.28( 69.48%)d 0.00(  0.06%)
                                           -0.0002  0.5518  0.0122  0.0020  0.0000
                                           -0.4415  0.0150  0.0010  0.7068  0.0037
                                            0.0104 -0.0002 -0.0005  0.0010 -0.0180
                                            0.0000 -0.0001 -0.0106 -0.0136
                ( 61.14%)  -0.7819* H   5 s(100.00%)
                                            1.0000  0.0023
    86. (0.00959) BD*( 1) C   2 - H   6  
                ( 38.86%)   0.6233* C   2 s( 30.46%)p 2.28( 69.48%)d 0.00(  0.06%)
                                           -0.0002  0.5518  0.0122  0.0020  0.0000
                                           -0.4415  0.0150  0.0010 -0.7068 -0.0037
                                           -0.0104 -0.0002 -0.0005  0.0010  0.0180
                                            0.0000  0.0001 -0.0106 -0.0136
                ( 61.14%)  -0.7819* H   6 s(100.00%)
                                            1.0000  0.0023
    87. (0.00145) BD*( 1) C   7 - C   8  
                ( 50.00%)   0.7071* C   7 s( 19.68%)p 4.08( 80.27%)d 0.00(  0.05%)
                                            0.0000  0.4432 -0.0177 -0.0053  0.0003
                                           -0.5527  0.0330  0.0022  0.0000  0.0000
                                            0.0000  0.7034  0.0364 -0.0111  0.0000
                                           -0.0178  0.0000  0.0121 -0.0081
                ( 50.00%)  -0.7071* C   8 s( 19.68%)p 4.08( 80.27%)d 0.00(  0.05%)
                                            0.0000  0.4432 -0.0177 -0.0053  0.0003
                                            0.5527 -0.0330 -0.0022  0.0000  0.0000
                                            0.0000  0.7034  0.0364 -0.0111  0.0000
                                            0.0178  0.0000  0.0121 -0.0081
    88. (0.00146) BD*( 2) C   7 - C   8  
                ( 50.00%)   0.7071* C   7 s( 19.45%)p 4.14( 80.50%)d 0.00(  0.05%)
                                            0.0000 -0.4405  0.0211  0.0006  0.0004
                                            0.5484 -0.0334 -0.0010  0.0000  0.0000
                                            0.0000  0.7083  0.0364 -0.0103  0.0000
                                           -0.0178  0.0000 -0.0119  0.0081
                ( 50.00%)  -0.7071* C   8 s( 19.45%)p 4.14( 80.50%)d 0.00(  0.05%)
                                            0.0000 -0.4405  0.0211  0.0006  0.0004
                                           -0.5484  0.0334  0.0010  0.0000  0.0000
                                            0.0000  0.7083  0.0364 -0.0103  0.0000
                                            0.0178  0.0000 -0.0119  0.0081
    89. (0.00959) BD*( 1) C   7 - H   9  
                ( 38.86%)   0.6233* C   7 s( 30.46%)p 2.28( 69.48%)d 0.00(  0.06%)
                                            0.0002 -0.5518 -0.0122 -0.0020  0.0000
                                           -0.4415  0.0150  0.0010 -0.7068 -0.0037
                                           -0.0104 -0.0002 -0.0005  0.0010 -0.0180
                                            0.0000 -0.0001  0.0106  0.0136
                ( 61.14%)  -0.7819* H   9 s(100.00%)
                                           -1.0000 -0.0023
    90. (0.00959) BD*( 1) C   7 - H  10  
                ( 38.86%)   0.6233* C   7 s( 30.46%)p 2.28( 69.48%)d 0.00(  0.06%)
                                            0.0002 -0.5518 -0.0122 -0.0020  0.0000
                                           -0.4415  0.0150  0.0010  0.7068  0.0037
                                            0.0104 -0.0002 -0.0005  0.0010  0.0180
                                            0.0000  0.0001  0.0106  0.0136
                ( 61.14%)  -0.7819* H  10 s(100.00%)
                                           -1.0000 -0.0023
    91. (0.00959) BD*( 1) C   8 - H  11  
                ( 38.86%)   0.6233* C   8 s( 30.46%)p 2.28( 69.48%)d 0.00(  0.06%)
                                           -0.0002  0.5518  0.0122  0.0020  0.0000
                                           -0.4415  0.0150  0.0010  0.7068  0.0037
                                            0.0104  0.0002  0.0005 -0.0010 -0.0180
                                            0.0000  0.0001 -0.0106 -0.0136
                ( 61.14%)  -0.7819* H  11 s(100.00%)
                                            1.0000  0.0023
    92. (0.00959) BD*( 1) C   8 - H  12  
                ( 38.86%)   0.6233* C   8 s( 30.46%)p 2.28( 69.48%)d 0.00(  0.06%)
                                           -0.0002  0.5518  0.0122  0.0020  0.0000
                                           -0.4415  0.0150  0.0010 -0.7068 -0.0037
                                           -0.0104  0.0002  0.0005 -0.0010  0.0180
                                            0.0000 -0.0001 -0.0106 -0.0136
                ( 61.14%)  -0.7819* H  12 s(100.00%)
                                            1.0000  0.0023


 NHO Directionality and "Bond Bending" (deviations from line of nuclear centers)

         [Thresholds for printing:  angular deviation  >  1.0 degree]
                                    hybrid p-character > 25.0%
                                    orbital occupancy  >  0.10e

                                Line of Centers        Hybrid 1              Hybrid 2
                                ---------------  -------------------   ------------------
                NBO               Theta   Phi    Theta   Phi    Dev    Theta   Phi    Dev
 ========================================================================================
     1. BD (   1) C   1 - C   2    90.0  180.0   144.6  180.0  54.6    144.6    0.0  54.6
     2. BD (   2) C   1 - C   2    90.0  180.0    35.0  180.0  55.0     35.0    0.0  55.0
     7. BD (   1) C   7 - C   8    90.0  180.0    35.4  180.0  54.6     35.4    0.0  54.6
     8. BD (   2) C   7 - C   8    90.0  180.0   145.0  180.0  55.0    145.0    0.0  55.0


 Second Order Perturbation Theory Analysis of Fock Matrix in NBO Basis

     Threshold for printing:   0.50 kcal/mol
    (Intermolecular threshold: 0.05 kcal/mol)
                                                                              E(2)  E(j)-E(i) F(i,j)
         Donor NBO (i)                     Acceptor NBO (j)                 kcal/mol   a.u.    a.u. 
 ===================================================================================================

 within unit  1
   3. BD (   1) C   1 - H   3        / 31. RY*(   1) C   2                    1.42    1.56    0.042
   3. BD (   1) C   1 - H   3        / 32. RY*(   2) C   2                    0.65    1.09    0.024
   3. BD (   1) C   1 - H   3        / 86. BD*(   1) C   2 - H   6            4.32    0.99    0.058
   4. BD (   1) C   1 - H   4        / 31. RY*(   1) C   2                    1.42    1.56    0.042
   4. BD (   1) C   1 - H   4        / 32. RY*(   2) C   2                    0.65    1.09    0.024
   4. BD (   1) C   1 - H   4        / 85. BD*(   1) C   2 - H   5            4.32    0.99    0.058
   5. BD (   1) C   2 - H   5        / 17. RY*(   1) C   1                    1.42    1.56    0.042
   5. BD (   1) C   2 - H   5        / 18. RY*(   2) C   1                    0.65    1.09    0.024
   5. BD (   1) C   2 - H   5        / 84. BD*(   1) C   1 - H   4            4.32    0.99    0.058
   6. BD (   1) C   2 - H   6        / 17. RY*(   1) C   1                    1.42    1.56    0.042
   6. BD (   1) C   2 - H   6        / 18. RY*(   2) C   1                    0.65    1.09    0.024
   6. BD (   1) C   2 - H   6        / 83. BD*(   1) C   1 - H   3            4.32    0.99    0.058
  13. CR (   1) C   1                / 32. RY*(   2) C   2                    2.77   10.63    0.153
  13. CR (   1) C   1                / 85. BD*(   1) C   2 - H   5            0.67   10.53    0.075
  13. CR (   1) C   1                / 86. BD*(   1) C   2 - H   6            0.67   10.53    0.075
  14. CR (   1) C   2                / 18. RY*(   2) C   1                    2.77   10.63    0.153
  14. CR (   1) C   2                / 83. BD*(   1) C   1 - H   3            0.67   10.53    0.075
  14. CR (   1) C   2                / 84. BD*(   1) C   1 - H   4            0.67   10.53    0.075

 from unit  1 to unit  2
       None above threshold

 from unit  2 to unit  1
       None above threshold

 within unit  2
   9. BD (   1) C   7 - H   9        / 63. RY*(   1) C   8                    1.42    1.56    0.042
   9. BD (   1) C   7 - H   9        / 64. RY*(   2) C   8                    0.65    1.09    0.024
   9. BD (   1) C   7 - H   9        / 92. BD*(   1) C   8 - H  12            4.32    0.99    0.058
  10. BD (   1) C   7 - H  10        / 63. RY*(   1) C   8                    1.42    1.56    0.042
  10. BD (   1) C   7 - H  10        / 64. RY*(   2) C   8                    0.65    1.09    0.024
  10. BD (   1) C   7 - H  10        / 91. BD*(   1) C   8 - H  11            4.32    0.99    0.058
  11. BD (   1) C   8 - H  11        / 49. RY*(   1) C   7                    1.42    1.56    0.042
  11. BD (   1) C   8 - H  11        / 50. RY*(   2) C   7                    0.65    1.09    0.024
  11. BD (   1) C   8 - H  11        / 90. BD*(   1) C   7 - H  10            4.32    0.99    0.058
  12. BD (   1) C   8 - H  12        / 49. RY*(   1) C   7                    1.42    1.56    0.042
  12. BD (   1) C   8 - H  12        / 50. RY*(   2) C   7                    0.65    1.09    0.024
  12. BD (   1) C   8 - H  12        / 89. BD*(   1) C   7 - H   9            4.32    0.99    0.058
  15. CR (   1) C   7                / 64. RY*(   2) C   8                    2.77   10.63    0.153
  15. CR (   1) C   7                / 91. BD*(   1) C   8 - H  11            0.67   10.53    0.075
  15. CR (   1) C   7                / 92. BD*(   1) C   8 - H  12            0.67   10.53    0.075
  16. CR (   1) C   8                / 50. RY*(   2) C   7                    2.77   10.63    0.153
  16. CR (   1) C   8                / 89. BD*(   1) C   7 - H   9            0.67   10.53    0.075
  16. CR (   1) C   8                / 90. BD*(   1) C   7 - H  10            0.67   10.53    0.075


 Natural Bond Orbitals (Summary):

                                                            Principal Delocalizations
           NBO                        Occupancy    Energy   (geminal,vicinal,remote)
 ====================================================================================
 Molecular unit  1  (C2H4)
     1. BD (   1) C   1 - C   2          1.99872    -0.50736   
     2. BD (   2) C   1 - C   2          1.99864    -0.50360   
     3. BD (   1) C   1 - H   3          1.98705    -0.52147  86(v),31(v),32(v)
     4. BD (   1) C   1 - H   4          1.98705    -0.52147  85(v),31(v),32(v)
     5. BD (   1) C   2 - H   5          1.98705    -0.52147  84(v),17(v),18(v)
     6. BD (   1) C   2 - H   6          1.98705    -0.52147  83(v),17(v),18(v)
    13. CR (   1) C   1                  1.99927   -10.06354  32(v),85(v),86(v)
    14. CR (   1) C   2                  1.99927   -10.06354  18(v),83(v),84(v)
    17. RY*(   1) C   1                  0.00370     1.03904   
    18. RY*(   2) C   1                  0.00158     0.56565   
    19. RY*(   3) C   1                  0.00018     0.36872   
    20. RY*(   4) C   1                  0.00007     0.58783   
    21. RY*(   5) C   1                  0.00000     0.25674   
    22. RY*(   6) C   1                  0.00000     3.93596   
    23. RY*(   7) C   1                  0.00000     0.31947   
    24. RY*(   8) C   1                  0.00000     0.74461   
    25. RY*(   9) C   1                  0.00001     0.67947   
    26. RY*(  10) C   1                  0.00000     2.07294   
    27. RY*(  11) C   1                  0.00000     1.90101   
    28. RY*(  12) C   1                  0.00000     1.68020   
    29. RY*(  13) C   1                  0.00000     2.23432   
    30. RY*(  14) C   1                  0.00001     2.04688   
    31. RY*(   1) C   2                  0.00370     1.03904   
    32. RY*(   2) C   2                  0.00158     0.56565   
    33. RY*(   3) C   2                  0.00018     0.36872   
    34. RY*(   4) C   2                  0.00007     0.58783   
    35. RY*(   5) C   2                  0.00000     0.25674   
    36. RY*(   6) C   2                  0.00000     3.93596   
    37. RY*(   7) C   2                  0.00000     0.31947   
    38. RY*(   8) C   2                  0.00000     0.74461   
    39. RY*(   9) C   2                  0.00001     0.67947   
    40. RY*(  10) C   2                  0.00000     2.07294   
    41. RY*(  11) C   2                  0.00000     1.90101   
    42. RY*(  12) C   2                  0.00000     1.68020   
    43. RY*(  13) C   2                  0.00000     2.23432   
    44. RY*(  14) C   2                  0.00001     2.04688   
    45. RY*(   1) H   3                  0.00088     0.61524   
    46. RY*(   1) H   4                  0.00088     0.61524   
    47. RY*(   1) H   5                  0.00088     0.61524   
    48. RY*(   1) H   6                  0.00088     0.61524   
    81. BD*(   1) C   1 - C   2          0.00145     0.33621   
    82. BD*(   2) C   1 - C   2          0.00146     0.33209   
    83. BD*(   1) C   1 - H   3          0.00959     0.46631   
    84. BD*(   1) C   1 - H   4          0.00959     0.46631   
    85. BD*(   1) C   2 - H   5          0.00959     0.46631   
    86. BD*(   1) C   2 - H   6          0.00959     0.46631   
       -------------------------------
              Total Lewis   15.94409  ( 99.6505%)
        Valence non-Lewis    0.04128  (  0.2580%)
        Rydberg non-Lewis    0.01463  (  0.0914%)
       -------------------------------
            Total unit  1   16.00000  (100.0000%)
           Charge unit  1    0.00000

 Molecular unit  2  (C2H4)
     7. BD (   1) C   7 - C   8          1.99872    -0.50736   
     8. BD (   2) C   7 - C   8          1.99864    -0.50360   
     9. BD (   1) C   7 - H   9          1.98705    -0.52147  92(v),63(v),64(v)
    10. BD (   1) C   7 - H  10          1.98705    -0.52147  91(v),63(v),64(v)
    11. BD (   1) C   8 - H  11          1.98705    -0.52147  90(v),49(v),50(v)
    12. BD (   1) C   8 - H  12          1.98705    -0.52147  89(v),49(v),50(v)
    15. CR (   1) C   7                  1.99927   -10.06354  64(v),91(v),92(v)
    16. CR (   1) C   8                  1.99927   -10.06354  50(v),89(v),90(v)
    49. RY*(   1) C   7                  0.00370     1.03904   
    50. RY*(   2) C   7                  0.00158     0.56565   
    51. RY*(   3) C   7                  0.00018     0.36872   
    52. RY*(   4) C   7                  0.00007     0.58783   
    53. RY*(   5) C   7                  0.00000     0.25674   
    54. RY*(   6) C   7                  0.00000     3.93596   
    55. RY*(   7) C   7                  0.00000     0.31947   
    56. RY*(   8) C   7                  0.00000     0.74461   
    57. RY*(   9) C   7                  0.00001     0.67947   
    58. RY*(  10) C   7                  0.00000     2.07294   
    59. RY*(  11) C   7                  0.00000     1.90101   
    60. RY*(  12) C   7                  0.00000     1.68020   
    61. RY*(  13) C   7                  0.00000     2.23432   
    62. RY*(  14) C   7                  0.00001     2.04688   
    63. RY*(   1) C   8                  0.00370     1.03904   
    64. RY*(   2) C   8                  0.00158     0.56565   
    65. RY*(   3) C   8                  0.00018     0.36872   
    66. RY*(   4) C   8                  0.00007     0.58783   
    67. RY*(   5) C   8                  0.00000     0.25674   
    68. RY*(   6) C   8                  0.00000     3.93596   
    69. RY*(   7) C   8                  0.00000     0.31947   
    70. RY*(   8) C   8                  0.00000     0.74461   
    71. RY*(   9) C   8                  0.00001     0.67947   
    72. RY*(  10) C   8                  0.00000     2.07294   
    73. RY*(  11) C   8                  0.00000     1.90101   
    74. RY*(  12) C   8                  0.00000     1.68020   
    75. RY*(  13) C   8                  0.00000     2.23432   
    76. RY*(  14) C   8                  0.00001     2.04688   
    77. RY*(   1) H   9                  0.00088     0.61524   
    78. RY*(   1) H  10                  0.00088     0.61524   
    79. RY*(   1) H  11                  0.00088     0.61524   
    80. RY*(   1) H  12                  0.00088     0.61524   
    87. BD*(   1) C   7 - C   8          0.00145     0.33621   
    88. BD*(   2) C   7 - C   8          0.00146     0.33209   
    89. BD*(   1) C   7 - H   9          0.00959     0.46631   
    90. BD*(   1) C   7 - H  10          0.00959     0.46631   
    91. BD*(   1) C   8 - H  11          0.00959     0.46631   
    92. BD*(   1) C   8 - H  12          0.00959     0.46631   
       -------------------------------
              Total Lewis   15.94409  ( 99.6505%)
        Valence non-Lewis    0.04128  (  0.2580%)
        Rydberg non-Lewis    0.01463  (  0.0914%)
       -------------------------------
            Total unit  2   16.00000  (100.0000%)
           Charge unit  2    0.00000
 1\1\GINC-RSWPRH01\SP\RB3LYP\6-31+G(d)\C4H8\ROOT\18-Sep-2016\0\\# B3LYP
 /6-31+G* int=ultrafine nosymm pop=nboread\\A_B_0\\0,1\C,0,0.672749,0.,
 0.\C,0,-0.672749,0.,0.\H,0,1.242623,0.934806,0.\H,0,1.242623,-0.934806
 ,0.\H,0,-1.242623,0.934806,0.\H,0,-1.242623,-0.934806,0.\C,0,0.672749,
 0.,5.\C,0,-0.672749,0.,5.\H,0,1.242623,0.934806,5.\H,0,1.242623,-0.934
 806,5.\H,0,-1.242623,0.934806,5.\H,0,-1.242623,-0.934806,5.\\Version=E
 S64L-G09RevD.01\HF=-157.1855756\RMSD=6.698e-09\Dipole=0.,0.,0.\Quadrup
 ole=1.9227652,1.9745812,-3.8973464,0.,0.,0.\PG=D02H [SG"(C4),X(H8)]\\@


 TRUTH, IN SCIENCE, CAN BE DEFINED AS THE WORKING HYPOTHESIS 
 BEST FITTED TO OPEN THE WAY TO THE NEXT BETTER ONE.

                              -- KONRAD LORENZ
 Job cpu time:       0 days  0 hours  0 minutes 28.8 seconds.
 File lengths (MBytes):  RWF=      5 Int=      0 D2E=      0 Chk=      1 Scr=      1
 Normal termination of Gaussian 09 at Sun Sep 18 08:50:27 2016.
