B_0                                                                     
SP        RB3LYP                                                      6-31+G(d)           
Number of atoms                            I                6
Info1-9                                    I   N=           9
          15          15           0           0           0         110
           1          18        -502
Charge                                     I                0
Multiplicity                               I                1
Number of electrons                        I               16
Number of alpha electrons                  I                8
Number of beta electrons                   I                8
Number of basis functions                  I               46
Number of independent functions            I               46
Number of point charges in /Mol/           I                0
Number of translation vectors              I                0
Atomic numbers                             I   N=           6
           6           6           1           1           1           1
Nuclear charges                            R   N=           6
  6.00000000E+00  6.00000000E+00  1.00000000E+00  1.00000000E+00  1.00000000E+00
  1.00000000E+00
Current cartesian coordinates              R   N=          18
  1.27131137E+00  0.00000000E+00  9.44863066E+00 -1.27131137E+00  0.00000000E+00
  9.44863066E+00  2.34821716E+00  1.76652733E+00  9.44863066E+00  2.34821716E+00
 -1.76652733E+00  9.44863066E+00 -2.34821716E+00  1.76652733E+00  9.44863066E+00
 -2.34821716E+00 -1.76652733E+00  9.44863066E+00
Force Field                                I                0
Int Atom Types                             I   N=           6
           0           0           0           0           0           0
MM charges                                 R   N=           6
  0.00000000E+00  0.00000000E+00  0.00000000E+00  0.00000000E+00  0.00000000E+00
  0.00000000E+00
Integer atomic weights                     I   N=           6
          12          12           1           1           1           1
Real atomic weights                        R   N=           6
  1.20000000E+01  1.20000000E+01  1.00782504E+00  1.00782504E+00  1.00782504E+00
  1.00782504E+00
Atom fragment info                         I   N=           6
           0           0           0           0           0           0
Atom residue num                           I   N=           6
           0           0           0           0           0           0
Nuclear spins                              I   N=           6
           0           0           1           1           1           1
Nuclear ZEff                               R   N=           6
 -3.60000000E+00 -3.60000000E+00 -1.00000000E+00 -1.00000000E+00 -1.00000000E+00
 -1.00000000E+00
Nuclear ZNuc                               R   N=           6
  6.00000000E+00  6.00000000E+00  1.00000000E+00  1.00000000E+00  1.00000000E+00
  1.00000000E+00
Nuclear QMom                               R   N=           6
  0.00000000E+00  0.00000000E+00  0.00000000E+00  0.00000000E+00  0.00000000E+00
  0.00000000E+00
Nuclear GFac                               R   N=           6
  0.00000000E+00  0.00000000E+00  2.79284600E+00  2.79284600E+00  2.79284600E+00
  2.79284600E+00
MicOpt                                     I   N=           6
          -1          -1          -1          -1          -1          -1
Number of contracted shells                I               18
Number of primitive shells                 I               40
Pure/Cartesian d shells                    I                1
Pure/Cartesian f shells                    I                0
Highest angular momentum                   I                2
Largest degree of contraction              I                6
Shell types                                I   N=          18
           0          -1          -1          -1           2           0
          -1          -1          -1           2           0           0
           0           0           0           0           0           0
Number of primitives per shell             I   N=          18
           6           3           1           1           1           6
           3           1           1           1           3           1
           3           1           3           1           3           1
Shell to atom map                          I   N=          18
           1           1           1           1           1           2
           2           2           2           2           3           3
           4           4           5           5           6           6
Primitive exponents                        R   N=          40
  3.04752488E+03  4.57369518E+02  1.03948685E+02  2.92101553E+01  9.28666296E+00
  3.16392696E+00  7.86827235E+00  1.88128854E+00  5.44249258E-01  1.68714478E-01
  4.38000000E-02  8.00000000E-01  3.04752488E+03  4.57369518E+02  1.03948685E+02
  2.92101553E+01  9.28666296E+00  3.16392696E+00  7.86827235E+00  1.88128854E+00
  5.44249258E-01  1.68714478E-01  4.38000000E-02  8.00000000E-01  1.87311370E+01
  2.82539436E+00  6.40121692E-01  1.61277759E-01  1.87311370E+01  2.82539436E+00
  6.40121692E-01  1.61277759E-01  1.87311370E+01  2.82539436E+00  6.40121692E-01
  1.61277759E-01  1.87311370E+01  2.82539436E+00  6.40121692E-01  1.61277759E-01
Contraction coefficients                   R   N=          40
  1.83473713E-03  1.40373228E-02  6.88426223E-02  2.32184443E-01  4.67941348E-01
  3.62311985E-01 -1.19332420E-01 -1.60854152E-01  1.14345644E+00  1.00000000E+00
  1.00000000E+00  1.00000000E+00  1.83473713E-03  1.40373228E-02  6.88426223E-02
  2.32184443E-01  4.67941348E-01  3.62311985E-01 -1.19332420E-01 -1.60854152E-01
  1.14345644E+00  1.00000000E+00  1.00000000E+00  1.00000000E+00  3.34946043E-02
  2.34726953E-01  8.13757326E-01  1.00000000E+00  3.34946043E-02  2.34726953E-01
  8.13757326E-01  1.00000000E+00  3.34946043E-02  2.34726953E-01  8.13757326E-01
  1.00000000E+00  3.34946043E-02  2.34726953E-01  8.13757326E-01  1.00000000E+00
P(S=P) Contraction coefficients            R   N=          40
  0.00000000E+00  0.00000000E+00  0.00000000E+00  0.00000000E+00  0.00000000E+00
  0.00000000E+00  6.89990666E-02  3.16423961E-01  7.44308291E-01  1.00000000E+00
  1.00000000E+00  0.00000000E+00  0.00000000E+00  0.00000000E+00  0.00000000E+00
  0.00000000E+00  0.00000000E+00  0.00000000E+00  6.89990666E-02  3.16423961E-01
  7.44308291E-01  1.00000000E+00  1.00000000E+00  0.00000000E+00  0.00000000E+00
  0.00000000E+00  0.00000000E+00  0.00000000E+00  0.00000000E+00  0.00000000E+00
  0.00000000E+00  0.00000000E+00  0.00000000E+00  0.00000000E+00  0.00000000E+00
  0.00000000E+00  0.00000000E+00  0.00000000E+00  0.00000000E+00  0.00000000E+00
Coordinates of each shell                  R   N=          54
  1.27131137E+00  0.00000000E+00  9.44863066E+00  1.27131137E+00  0.00000000E+00
  9.44863066E+00  1.27131137E+00  0.00000000E+00  9.44863066E+00  1.27131137E+00
  0.00000000E+00  9.44863066E+00  1.27131137E+00  0.00000000E+00  9.44863066E+00
 -1.27131137E+00  0.00000000E+00  9.44863066E+00 -1.27131137E+00  0.00000000E+00
  9.44863066E+00 -1.27131137E+00  0.00000000E+00  9.44863066E+00 -1.27131137E+00
  0.00000000E+00  9.44863066E+00 -1.27131137E+00  0.00000000E+00  9.44863066E+00
  2.34821716E+00  1.76652733E+00  9.44863066E+00  2.34821716E+00  1.76652733E+00
  9.44863066E+00  2.34821716E+00 -1.76652733E+00  9.44863066E+00  2.34821716E+00
 -1.76652733E+00  9.44863066E+00 -2.34821716E+00  1.76652733E+00  9.44863066E+00
 -2.34821716E+00  1.76652733E+00  9.44863066E+00 -2.34821716E+00 -1.76652733E+00
  9.44863066E+00 -2.34821716E+00 -1.76652733E+00  9.44863066E+00
Constraint Structure                       R   N=          18
  1.27131137E+00  0.00000000E+00  9.44863066E+00 -1.27131137E+00  0.00000000E+00
  9.44863066E+00  2.34821716E+00  1.76652733E+00  9.44863066E+00  2.34821716E+00
 -1.76652733E+00  9.44863066E+00 -2.34821716E+00  1.76652733E+00  9.44863066E+00
 -2.34821716E+00 -1.76652733E+00  9.44863066E+00
Num ILSW                                   I              100
ILSW                                       I   N=         100
           0           1           0           0           2           0
           0           0           0           0         402          -1
           5           0           0           0           0           0
           0           0           1           0           0           0
           1           1           0           0           0           0
           0           0      100000           0          -1           0
           0           0           0           0           0           0
           0           0           0           1           0           0
           0           0           1           0           0           0
           0           0           4          41           0           0
           0           0           5           0           0           0
           0           0           0           0           0           0
           0           0           0           0           0           0
           0           0           0           0           0           0
           0           0           0           0           0           0
           0           0           0           0           0           0
           0           0           0           0
Num RLSW                                   I               41
RLSW                                       R   N=          41
  8.00000000E-01  7.20000000E-01  1.00000000E+00  8.10000000E-01  2.00000000E-01
  0.00000000E+00  0.00000000E+00  1.00000000E+00  0.00000000E+00  0.00000000E+00
  0.00000000E+00  0.00000000E+00  1.00000000E+00  0.00000000E+00  0.00000000E+00
  0.00000000E+00  0.00000000E+00  1.00000000E+00  0.00000000E+00  0.00000000E+00
  0.00000000E+00  0.00000000E+00  1.00000000E+00  0.00000000E+00  0.00000000E+00
  0.00000000E+00  0.00000000E+00  1.00000000E+00  0.00000000E+00  0.00000000E+00
  0.00000000E+00  0.00000000E+00  1.00000000E+00  0.00000000E+00  0.00000000E+00
  0.00000000E+00  0.00000000E+00  0.00000000E+00  1.00000000E+00  1.00000000E+00
  0.00000000E+00
MxBond                                     I                3
NBond                                      I   N=           6
           3           3           1           1           1           1
IBond                                      I   N=          18
           2           3           4           1           5           6
           1           0           0           1           0           0
           2           0           0           2           0           0
RBond                                      R   N=          18
  2.00000000E+00  1.00000000E+00  1.00000000E+00  2.00000000E+00  1.00000000E+00
  1.00000000E+00  1.00000000E+00  0.00000000E+00  0.00000000E+00  1.00000000E+00
  0.00000000E+00  0.00000000E+00  1.00000000E+00  0.00000000E+00  0.00000000E+00
  1.00000000E+00  0.00000000E+00  0.00000000E+00
Virial Ratio                               R      2.011877507626054E+00
SCF Energy                                 R     -7.859298496755466E+01
Total Energy                               R     -7.859298496755466E+01
RMS Density                                R      1.139155794447055E-09
External E-field                           R   N=          35
  0.00000000E+00  0.00000000E+00  0.00000000E+00  0.00000000E+00  0.00000000E+00
  0.00000000E+00  0.00000000E+00  0.00000000E+00  0.00000000E+00  0.00000000E+00
  0.00000000E+00  0.00000000E+00  0.00000000E+00  0.00000000E+00  0.00000000E+00
  0.00000000E+00  0.00000000E+00  0.00000000E+00  0.00000000E+00  0.00000000E+00
  0.00000000E+00  0.00000000E+00  0.00000000E+00  0.00000000E+00  0.00000000E+00
  0.00000000E+00  0.00000000E+00  0.00000000E+00  0.00000000E+00  0.00000000E+00
  0.00000000E+00  0.00000000E+00  0.00000000E+00  0.00000000E+00  0.00000000E+00
IOpCl                                      I                0
IROHF                                      I                0
Alpha Orbital Energies                     R   N=          46
 -1.01987068E+01 -1.01979005E+01 -7.62055366E-01 -5.84477985E-01 -4.72680313E-01
 -4.22673825E-01 -3.63216314E-01 -2.75956762E-01 -9.87616801E-03  2.50218917E-02
  3.25740911E-02  4.67130053E-02  6.95762628E-02  8.67334464E-02  8.74548224E-02
  1.27516016E-01  1.56680021E-01  1.76426083E-01  1.90396963E-01  2.43026451E-01
  3.42326277E-01  3.47549483E-01  5.79938592E-01  6.57848685E-01  6.74690871E-01
  7.19168516E-01  7.56765491E-01  8.19624531E-01  8.99524347E-01  9.36430663E-01
  9.63238913E-01  1.00218303E+00  1.16203660E+00  1.21969411E+00  1.44779520E+00
  1.53897371E+00  1.81652188E+00  1.88523532E+00  1.99937246E+00  2.10768528E+00
  2.29199614E+00  2.37010295E+00  2.66501850E+00  2.70045721E+00  4.11589522E+00
  4.25146495E+00
Alpha MO coefficients                      R   N=        2116
  7.01848324E-01  3.45111600E-02  1.76545267E-04  5.61801434E-17 -1.80107778E-17
 -6.26439403E-03 -2.86418037E-04 -5.99679319E-17  2.17217572E-16  6.06911126E-04
 -7.56114282E-04 -6.69258609E-17 -7.86765631E-16 -6.66402990E-03 -6.69016042E-03
 -6.89547035E-03 -3.95687005E-17  2.30574655E-16 -5.37226832E-16  7.01848324E-01
  3.45111600E-02 -1.76545267E-04  1.53469615E-16  5.34040509E-17 -6.26439402E-03
  2.86418040E-04 -9.50075548E-16 -2.22570415E-16  6.06911109E-04  7.56114277E-04
 -3.70098467E-16  6.55916018E-16 -6.66402990E-03 -6.69016042E-03 -6.89547035E-03
  5.74812423E-17  1.26590020E-16 -4.76311165E-16 -2.01446992E-04  1.01249353E-03
 -2.01446992E-04  1.01249353E-03 -2.01446992E-04  1.01249353E-03 -2.01446992E-04
  1.01249353E-03  7.02152907E-01  3.51944811E-02 -3.26942327E-04  3.09093726E-16
  1.53256470E-16 -1.29491478E-02  2.34694707E-03 -1.65721743E-15 -1.75307044E-16
  1.93773315E-02 -5.22205133E-03 -8.26487376E-16  8.98816272E-16 -6.23742589E-03
 -6.50593308E-03 -6.75383966E-03 -4.95665904E-16  4.84052479E-17 -1.18089173E-17
 -7.02152907E-01 -3.51944812E-02 -3.26942327E-04 -4.44620868E-16  3.75372433E-17
  1.29491478E-02  2.34694707E-03  1.55585877E-15  5.02180197E-16 -1.93773315E-02
 -5.22205133E-03  8.58104760E-16 -5.03732467E-16  6.23742590E-03  6.50593309E-03
  6.75383966E-03 -5.17758277E-16  1.26804805E-16  1.68782011E-18 -1.03254479E-04
  1.16856299E-03 -1.03254479E-04  1.16856299E-03  1.03254479E-04 -1.16856299E-03
  1.03254479E-04 -1.16856299E-03 -1.59533647E-01  3.11273599E-01 -1.00793311E-01
  4.73634724E-15 -3.43752187E-16  2.33854049E-01 -4.33518717E-03 -3.28200364E-14
 -1.44311768E-15  3.39840685E-03 -8.95399131E-04 -1.83663016E-14  5.19934766E-16
  8.12132107E-03  2.45681141E-04 -1.65628272E-02  1.44667065E-16  1.12680357E-16
 -2.08075069E-17 -1.59533647E-01  3.11273599E-01  1.00793311E-01 -1.51310152E-15
 -7.21719215E-16  2.33854049E-01  4.33518717E-03  1.65351711E-14 -9.37356809E-16
  3.39840685E-03  8.95399129E-04  1.31684679E-14  5.96712620E-16  8.12132107E-03
  2.45681141E-04 -1.65628272E-02  1.25816920E-15  4.72095378E-16 -5.41924521E-17
  8.39624742E-02  1.50558443E-02  8.39624742E-02  1.50558443E-02  8.39624742E-02
  1.50558443E-02  8.39624742E-02  1.50558443E-02 -1.23823270E-01  2.49515662E-01
  1.70475221E-01  9.44193310E-15 -2.45654218E-16  2.50193820E-01  6.25063105E-02
 -5.62285948E-14 -9.55974427E-16 -3.47749020E-02  1.77114789E-02 -2.27974684E-14
  7.97293142E-16 -8.42743493E-03  1.36364144E-02 -1.15292250E-02  6.82524249E-16
  2.09220517E-16 -8.55900243E-19  1.23823270E-01 -2.49515662E-01  1.70475221E-01
 -2.38785872E-15  1.62160092E-16 -2.50193820E-01  6.25063105E-02  3.98412994E-14
  7.39449717E-16  3.47749020E-02  1.77114789E-02  1.49736378E-14 -8.87298951E-16
  8.42743493E-03 -1.36364144E-02  1.15292250E-02  6.13158634E-16  1.93440043E-16
 -2.44980387E-17  1.45666688E-01  5.86722589E-02  1.45666688E-01  5.86722589E-02
 -1.45666688E-01 -5.86722589E-02 -1.45666688E-01 -5.86722589E-02  2.01654593E-15
  1.13892345E-15 -1.28679654E-15  3.31654469E-01 -7.68558540E-16 -4.39924899E-14
  2.44789181E-14  1.24742929E-01  1.05348817E-16  3.06691560E-14 -1.01122868E-14
  1.34861731E-02 -7.26951138E-16 -6.34208228E-16  1.55121412E-16  3.06348615E-17
  6.02884373E-03 -6.44155001E-17  3.85484350E-17 -2.41570869E-15 -5.42541689E-15
 -2.91747490E-15  3.31654469E-01 -3.32337602E-16  6.64325268E-14  1.77889731E-14
  1.24742929E-01 -9.88634249E-16 -3.02309119E-14 -1.69879357E-14  1.34861731E-02
  7.69638826E-16 -7.68052920E-16 -1.57909443E-15 -3.18217420E-15 -6.02884373E-03
  1.02902659E-16  5.48690908E-17  1.56715765E-01  9.72044102E-02 -1.56715765E-01
 -9.72044102E-02  1.56715765E-01  9.72044102E-02 -1.56715765E-01 -9.72044102E-02
  1.30021061E-02 -3.19745534E-02  4.15147882E-01  4.26676224E-15  7.92620244E-16
  6.33097361E-03  1.39885236E-01  2.07637860E-15  1.13962931E-15  1.80451201E-02
  3.14855422E-02  2.70260274E-15  8.59157933E-16 -6.02859106E-03  1.89097371E-02
  8.41184390E-05  3.20606978E-16  5.76553856E-17 -1.46726397E-16  1.30021061E-02
 -3.19745534E-02 -4.15147882E-01 -2.53850164E-15  8.84076193E-16  6.33097361E-03
 -1.39885236E-01 -5.63658186E-15  9.87125084E-16  1.80451201E-02 -3.14855422E-02
 -1.70990528E-16 -9.82769108E-16 -6.02859106E-03  1.89097371E-02  8.41184390E-05
  6.22768910E-16 -4.40874440E-16 -2.68387884E-17  1.25814801E-01  9.72211365E-02
  1.25814801E-01  9.72211365E-02  1.25814801E-01  9.72211365E-02  1.25814801E-01
  9.72211365E-02 -1.28255597E-15 -5.44562798E-15 -6.99326305E-15  3.10324328E-01
  3.89203922E-15  7.20107026E-14 -4.88892443E-14  1.37753101E-01  1.85884997E-15
 -1.15338652E-12  3.18601534E-13  4.34664641E-02  1.19595172E-15 -1.36926105E-15
 -3.67022983E-15 -2.33174068E-15  3.00441666E-02 -2.88804654E-16  4.84549795E-18
  2.90783144E-15  1.64192041E-14  2.46775574E-15 -3.10324328E-01  3.35762989E-15
 -1.18714491E-13 -3.00061586E-14 -1.37753101E-01  2.11528297E-15  1.14611201E-12
  3.21976594E-13 -4.34664641E-02 -2.42165439E-17  1.04305881E-15  2.50899211E-15
  4.61077385E-15  3.00441666E-02  6.48445733E-18  6.42982611E-17  1.97166367E-01
  1.71813422E-01 -1.97166367E-01 -1.71813422E-01 -1.97166367E-01 -1.71813422E-01
  1.97166367E-01  1.71813422E-01  1.37724723E-15  2.53448521E-15 -2.92869535E-15
 -1.28491943E-15  4.01915878E-01 -3.08757612E-14 -5.59203021E-15 -1.71655801E-15
  2.53948776E-01 -1.51548575E-14 -4.75643473E-15  1.45994073E-15  5.47522707E-02
  1.86873518E-15  2.12680298E-15  2.62340613E-15 -3.18887533E-16 -1.64380696E-02
 -1.92971515E-16  1.37463613E-15  2.50525843E-15  2.98972333E-15  2.45552519E-15
  4.01915878E-01 -2.79086456E-14  9.35397674E-15  5.16781465E-16  2.53948776E-01
  2.06212705E-14  1.51684030E-14 -1.52047812E-15  5.47522707E-02  1.92400496E-15
  1.94300744E-15  2.45239769E-15 -1.07782750E-16  1.64380696E-02 -5.51620832E-17
 -1.45086117E-15  1.16455327E-14  1.34426711E-15  1.31070290E-14  1.15426553E-15
  1.59738568E-14 -1.17867769E-15  1.09370822E-14  2.87298931E-15 -1.17115091E-15
 -1.08804426E-15  1.36074891E-15  3.75793840E-01 -4.40853238E-14 -9.87806648E-15
  5.88120864E-16  4.45682857E-01  4.07801797E-14  1.35584942E-17 -5.27719945E-15
  7.47018690E-01  1.94759517E-15  1.24827911E-15  1.95501301E-15  1.39824799E-16
  2.42529708E-02  2.56200476E-16 -2.89508710E-15  1.47664843E-15 -7.16242610E-16
 -9.83918296E-16 -3.75793840E-01  4.51856741E-14 -1.01712897E-14  2.46656600E-15
 -4.45682857E-01 -3.89661902E-14 -5.39059355E-15  1.84519512E-16 -7.47018690E-01
 -1.89731200E-15 -1.23971055E-15 -1.99339954E-15 -1.13832219E-16  2.42529708E-02
  2.15690625E-16  1.44005123E-15  2.04304232E-14  1.21822401E-15  2.07496135E-14
 -6.31744365E-16 -2.25625285E-14 -1.60689233E-15 -2.09573412E-14  5.10818065E-02
 -8.50847735E-02 -1.20581809E-01  3.11786312E-15  5.07548691E-15 -5.16202249E-01
 -1.55349290E-01 -6.38769896E-15  2.60214327E-16  8.21976696E-01  4.27311517E-01
 -8.15873812E-15 -2.04652696E-14  1.05020562E-04 -8.54881189E-04  1.43980585E-02
 -4.30978610E-16 -3.64900544E-16 -2.31684412E-16  5.10818065E-02 -8.50847735E-02
  1.20581809E-01  7.42561101E-15  3.86570625E-15 -5.16202249E-01  1.55349290E-01
  3.76509946E-14 -3.43555498E-15  8.21976696E-01 -4.27311517E-01  1.67121716E-15
 -3.99453170E-15  1.05020561E-04 -8.54881188E-04  1.43980585E-02 -2.04794935E-16
  1.54787781E-16  4.78070173E-17 -4.18313803E-03 -1.10501264E-02 -4.18313803E-03
 -1.10501264E-02 -4.18313803E-03 -1.10501264E-02 -4.18313803E-03 -1.10501264E-02
 -5.11817931E-02  1.09793608E-01  5.00244748E-02  9.42915106E-15  4.01609909E-15
  3.83956197E-01  6.86211329E-02 -1.80693660E-13  6.57916802E-15  9.62669507E+00
 -3.29112376E+00 -2.21621527E-13  2.82892962E-14 -1.15312360E-02  9.27535300E-03
 -3.01975881E-03  3.09426634E-15  4.48582912E-16 -2.70505818E-17  5.11817931E-02
 -1.09793608E-01  5.00244748E-02 -2.00985814E-14 -4.78178209E-15 -3.83956197E-01
  6.86211329E-02  7.17098081E-14 -7.51216573E-15 -9.62669507E+00 -3.29112376E+00
  1.51250632E-13 -2.57965462E-14  1.15312360E-02 -9.27535300E-03  3.01975881E-03
  2.14666497E-15  4.52731331E-16  7.12619410E-17 -2.42147889E-03 -8.14680530E-02
 -2.42147889E-03 -8.14680530E-02  2.42147889E-03  8.14680530E-02  2.42147889E-03
  8.14680530E-02  2.80081330E-15 -1.73793040E-15 -6.48786775E-15 -1.84068743E-01
  3.00276074E-15 -5.94409709E-14 -1.52599129E-14 -2.70193907E-01  4.95254889E-15
 -1.18618126E-13  4.56015474E-14  5.72292967E-01 -1.82200497E-15  3.21509289E-16
 -4.21706140E-16  4.13872378E-16  3.28736082E-03 -8.82350749E-17  5.73873553E-17
  3.50634937E-16 -3.43136788E-15  4.38916943E-15 -1.84068743E-01  2.46885702E-15
  4.98820949E-15  1.68830819E-14 -2.70193907E-01  3.28025411E-15  1.14355775E-13
 -5.87075624E-15  5.72292967E-01 -1.91835217E-14 -1.82737067E-16  8.31247604E-17
 -5.82877012E-16 -3.28736082E-03  2.11352880E-16  7.72290130E-17  1.26782228E-02
  7.22436074E-02 -1.26782228E-02 -7.22436074E-02  1.26782228E-02  7.22436074E-02
 -1.26782228E-02 -7.22436074E-02 -1.36223207E-15 -5.95922734E-17 -4.59392642E-15
 -2.41407408E-15 -1.58222142E-01  3.22109035E-14  5.21656146E-15 -2.49508724E-15
 -2.36514500E-01  2.80545671E-13  4.02588052E-14  2.39262454E-15  6.02947480E-01
 -2.42283828E-16 -2.48564462E-15 -1.55826337E-15  5.69384875E-17  1.12649236E-02
  7.42937617E-17 -2.53069700E-15  1.25210956E-15  3.49396263E-15 -3.55533650E-15
 -1.58222142E-01  4.56903288E-14 -5.95686809E-15 -4.79403021E-15 -2.36514500E-01
 -2.34616161E-13 -1.73298176E-13  1.66129506E-14  6.02947480E-01 -4.48645636E-16
 -2.53057470E-15 -1.81902803E-15  5.50516249E-17 -1.12649236E-02  1.29008682E-16
 -1.78825912E-15 -1.91981063E-14 -1.92211500E-15 -1.97888597E-14 -2.43681120E-15
 -1.54461464E-14 -2.30770721E-15 -1.65565190E-14 -3.64092638E-02  4.13681027E-02
 -4.39832196E-02  1.98716660E-13  9.97236338E-15  5.33550428E-01  4.94035789E-02
 -2.03773147E-14  2.47141051E-14 -7.15970091E-03  1.45221444E+00 -3.05751664E-12
 -5.25527402E-14  1.10799391E-02 -2.04711879E-02 -1.66653040E-02  1.55249854E-14
 -6.87869692E-16  9.15489847E-17 -3.64092638E-02  4.13681027E-02  4.39832196E-02
 -2.06534792E-13  6.64138511E-15  5.33550428E-01 -4.94035789E-02 -1.79334007E-14
  2.31652227E-14 -7.15970003E-03 -1.45221444E+00  3.02258092E-12 -3.22658545E-14
  1.10799391E-02 -2.04711879E-02 -1.66653040E-02  1.47956641E-14  7.60965746E-16
 -3.75227335E-17 -2.08728617E-02 -9.04049757E-02 -2.08728617E-02 -9.04049757E-02
 -2.08728617E-02 -9.04049757E-02 -2.08728617E-02 -9.04049757E-02 -3.59397495E-14
  6.36896565E-14 -6.63335768E-14 -1.53999093E-01  1.24117634E-15  3.78065654E-13
 -6.81348940E-15 -9.22898330E-02  1.70879059E-15 -2.99937854E-12  2.61446096E-12
  2.24087409E+00 -7.75973621E-15  1.88713913E-14 -2.08698433E-14 -1.83997376E-14
 -1.12609554E-02  1.30270713E-16 -2.79373538E-17 -5.44895401E-14  3.90795243E-14
  6.24548909E-14  1.53999093E-01 -2.59732159E-15  8.87891402E-13 -6.79682286E-14
  9.22898330E-02 -3.30541198E-15  2.89376146E-12 -1.21966309E-12 -2.24087409E+00
  1.16616992E-14  1.32040715E-14 -2.75915809E-14 -2.49911886E-14 -1.12609554E-02
 -5.07593487E-18 -7.10017206E-17 -1.74960711E-02 -1.71448778E-01  1.74960711E-02
  1.71448778E-01  1.74960711E-02  1.71448778E-01 -1.74960711E-02 -1.71448778E-01
 -5.59806416E-15  4.81330715E-15  6.60244514E-15  1.03546216E-15 -2.65941509E-01
  8.78691342E-14  3.99627876E-14  3.41865536E-15 -4.80232782E-01 -2.01786716E-12
  5.74496215E-13  1.22205893E-14  1.98897540E+00 -1.85145901E-15 -2.17029230E-15
 -1.78002724E-15 -3.85626560E-18 -9.11034695E-03 -4.48429443E-16  3.59398302E-15
 -2.91242364E-15  2.60423557E-15  2.29674021E-15  2.65941509E-01 -4.22767698E-14
  1.75148933E-14  2.29559528E-15  4.80232782E-01  2.04679623E-12  5.62341055E-13
 -1.09890704E-14 -1.98897540E+00  1.99209783E-15  1.10667343E-15  2.09533674E-15
  9.16269529E-18 -9.11034695E-03 -1.22743768E-16 -6.08945778E-15 -5.75894402E-14
 -5.69822286E-15 -4.39033283E-14  2.52684837E-15  3.09391946E-15  2.89629197E-15
  9.35634906E-15  5.59953600E-02 -8.19109072E-02 -8.92169226E-02 -6.17511272E-14
 -1.70908751E-14 -5.69142679E-01 -4.25152329E-01 -8.99991220E-13 -4.58177957E-14
  3.44830967E+01 -9.45801699E+00 -6.46045715E-13  1.14316466E-13  7.19654248E-03
  5.32581604E-03  1.02358059E-02  1.77038852E-14 -2.22507427E-15  9.37225688E-17
 -5.59953600E-02  8.19109072E-02 -8.92169226E-02 -8.43239369E-14  2.05111022E-14
  5.69142680E-01 -4.25152329E-01  3.25947342E-13  5.47749980E-14 -3.44830967E+01
 -9.45801699E+00  2.96645627E-13 -1.34366840E-13 -7.19654248E-03 -5.32581604E-03
 -1.02358059E-02 -5.52971414E-15 -1.05198800E-15 -8.21764341E-17  4.78139630E-02
  1.50590731E-01  4.78139630E-02  1.50590731E-01 -4.78139630E-02 -1.50590731E-01
 -4.78139630E-02 -1.50590731E-01 -5.98892297E-02  4.56209488E-02  1.63516618E-01
 -3.21851803E-13  7.02886648E-15  1.28813522E+00  6.42448413E-01 -1.36426978E-12
  1.54932739E-14  6.57723800E-01 -9.91893854E-02 -7.20126664E-13 -4.35432219E-14
 -3.55431364E-03 -2.77851054E-02  1.55721531E-02  5.39886524E-14 -1.04069231E-16
  3.44312692E-16 -5.98892297E-02  4.56209488E-02 -1.63516618E-01 -3.01644575E-13
 -3.85779920E-15  1.28813522E+00 -6.42448413E-01 -7.67512279E-13 -2.15734917E-15
  6.57723801E-01  9.91893857E-02 -5.58036719E-13  3.28714116E-14 -3.55431364E-03
 -2.77851054E-02  1.55721531E-02 -5.22594858E-14  2.85523246E-16  9.11361741E-17
 -1.00314125E-01 -1.23774597E+00 -1.00314125E-01 -1.23774597E+00 -1.00314125E-01
 -1.23774597E+00 -1.00314125E-01 -1.23774597E+00  6.29200032E-14 -6.17206229E-14
 -1.90512924E-13 -2.24843944E-01 -1.48509736E-15 -1.75090873E-12 -1.68138100E-13
 -7.29283115E-01 -3.99300820E-15 -7.01613273E-12  1.94632952E-12 -4.52358452E-01
  7.28258454E-15 -7.13735573E-15  2.49149688E-14 -2.64954301E-14  4.10904760E-02
 -9.16798375E-17 -8.13376927E-17  1.10583092E-13 -1.76767790E-13  2.99330096E-13
 -2.24843944E-01  1.43579255E-15 -1.74686864E-12  1.61180578E-12 -7.29283115E-01
  2.35426507E-15  5.16107353E-12  1.71926699E-12 -4.52358452E-01 -5.33983722E-15
  2.54207140E-15  5.04118860E-14 -3.14684088E-14 -4.10904760E-02 -1.50450856E-17
 -3.16420019E-16  1.38845112E-01  1.17409713E+00 -1.38845112E-01 -1.17409713E+00
  1.38845112E-01  1.17409713E+00 -1.38845112E-01 -1.17409713E+00 -7.67439178E-02
  9.79895948E-02  7.69706128E-02 -9.72191298E-14  4.83501381E-15  1.26023713E+00
  4.32511708E-01 -1.57006386E-12  1.01850392E-14  2.10442673E+01 -5.22213409E+00
 -1.04512658E-12 -2.33545629E-14 -7.49786504E-03 -1.78274872E-02  9.90395363E-03
 -2.41411199E-14 -6.77811649E-16 -1.36982489E-16  7.67439178E-02 -9.79895948E-02
  7.69706128E-02  2.59257354E-13 -4.75160336E-15 -1.26023713E+00  4.32511708E-01
  1.90627604E-12 -4.57664708E-15 -2.10442673E+01 -5.22213409E+00  1.27361826E-12
  1.38762520E-14  7.49786504E-03  1.78274872E-02 -9.90395363E-03  1.34408188E-14
  9.55731046E-16 -8.21634430E-17 -1.22854881E-01 -1.40635798E+00 -1.22854881E-01
 -1.40635798E+00  1.22854881E-01  1.40635798E+00  1.22854881E-01  1.40635798E+00
 -8.47332044E-13  5.92000324E-13 -1.99332278E-12 -3.78962614E-01 -5.01512080E-16
  2.86263547E-11 -2.41129158E-11 -1.82960156E+00 -2.34782192E-16 -7.62654826E-11
  2.28273238E-11 -1.85422421E+00  3.47852209E-15 -2.83254277E-13  1.87660949E-13
 -6.41424806E-14 -1.41324655E-02  1.00612118E-16 -4.64618064E-16  8.59772497E-13
 -5.20198289E-13 -1.98323084E-12  3.78962614E-01  2.31476026E-16 -2.89548300E-11
 -2.39360937E-11  1.82960156E+00 -2.18172469E-16  7.62198432E-11  2.28823398E-11
  1.85422421E+00 -2.24749830E-15  2.64896070E-13 -2.09482000E-13  5.18183880E-14
 -1.41324655E-02 -2.56454936E-16  3.61048590E-16  2.83080491E-02  1.90510166E+00
 -2.83080491E-02 -1.90510166E+00 -2.83080491E-02 -1.90510166E+00  2.83080491E-02
  1.90510166E+00  1.02496662E-01 -9.31730686E-02  2.23622160E-01 -3.33113497E-12
  1.92362047E-15 -3.29250124E+00  2.69469460E+00 -1.55943319E-11 -5.08801075E-15
  6.00936558E+00 -1.90884714E+00 -1.60905739E-11  4.34477316E-15  3.24876137E-02
 -2.34046574E-02  2.08409389E-03 -1.36226469E-13 -9.02817018E-16  2.36159837E-16
 -1.02496662E-01  9.31730686E-02  2.23622160E-01  3.43279645E-12  8.08763938E-16
  3.29250124E+00  2.69469460E+00  1.57125371E-11  5.06199875E-15 -6.00936558E+00
 -1.90884714E+00  1.62058813E-11 -7.25123660E-15 -3.24876137E-02  2.34046574E-02
 -2.08409389E-03 -1.11542930E-13 -1.38723000E-16  3.18903958E-16 -2.65675487E-02
 -2.38376981E-01 -2.65675487E-02 -2.38376981E-01  2.65675487E-02  2.38376981E-01
  2.65675487E-02  2.38376981E-01  2.82425400E-02  5.69163635E-02 -6.08879028E-01
 -3.16040612E-14  2.12112824E-14  4.23433320E-01  1.23450563E+00  3.57346912E-14
 -2.31209063E-14 -1.05186363E-01 -7.58983311E-01 -2.60804553E-14  7.38209053E-15
  7.49370022E-02 -6.08210329E-02 -9.91913228E-03 -2.52862525E-15 -1.90879278E-15
  9.97083232E-16  2.82425400E-02  5.69163635E-02  6.08879028E-01  3.04930978E-14
  1.74785836E-14  4.23433320E-01 -1.23450563E+00 -1.88207203E-14 -2.19360265E-14
 -1.05186363E-01  7.58983311E-01  2.98723150E-14  9.78241978E-15  7.49370022E-02
 -6.08210329E-02 -9.91913228E-03  2.64887179E-15  2.09328066E-15  2.90685198E-16