B_30                                                                    
SP        RB3LYP                                                      6-31+G(d)           
Number of atoms                            I                6
Info1-9                                    I   N=           9
          15          15           0           0           0         110
           1          18        -502
Charge                                     I                0
Multiplicity                               I                1
Number of electrons                        I               16
Number of alpha electrons                  I                8
Number of beta electrons                   I                8
Number of basis functions                  I               46
Number of independent functions            I               46
Number of point charges in /Mol/           I                0
Number of translation vectors              I                0
Atomic numbers                             I   N=           6
           6           6           1           1           1           1
Nuclear charges                            R   N=           6
  6.00000000E+00  6.00000000E+00  1.00000000E+00  1.00000000E+00  1.00000000E+00
  1.00000000E+00
Current cartesian coordinates              R   N=          18
  1.27131137E+00  0.00000000E+00  9.44863066E+00 -1.27131137E+00  0.00000000E+00
  9.44863066E+00  2.34821716E+00  1.52985803E+00  8.56536700E+00  2.34821716E+00
 -1.52985803E+00  1.03318943E+01 -2.34821716E+00  1.52985803E+00  8.56536700E+00
 -2.34821716E+00 -1.52985803E+00  1.03318943E+01
Force Field                                I                0
Int Atom Types                             I   N=           6
           0           0           0           0           0           0
MM charges                                 R   N=           6
  0.00000000E+00  0.00000000E+00  0.00000000E+00  0.00000000E+00  0.00000000E+00
  0.00000000E+00
Integer atomic weights                     I   N=           6
          12          12           1           1           1           1
Real atomic weights                        R   N=           6
  1.20000000E+01  1.20000000E+01  1.00782504E+00  1.00782504E+00  1.00782504E+00
  1.00782504E+00
Atom fragment info                         I   N=           6
           0           0           0           0           0           0
Atom residue num                           I   N=           6
           0           0           0           0           0           0
Nuclear spins                              I   N=           6
           0           0           1           1           1           1
Nuclear ZEff                               R   N=           6
 -3.60000000E+00 -3.60000000E+00 -1.00000000E+00 -1.00000000E+00 -1.00000000E+00
 -1.00000000E+00
Nuclear ZNuc                               R   N=           6
  6.00000000E+00  6.00000000E+00  1.00000000E+00  1.00000000E+00  1.00000000E+00
  1.00000000E+00
Nuclear QMom                               R   N=           6
  0.00000000E+00  0.00000000E+00  0.00000000E+00  0.00000000E+00  0.00000000E+00
  0.00000000E+00
Nuclear GFac                               R   N=           6
  0.00000000E+00  0.00000000E+00  2.79284600E+00  2.79284600E+00  2.79284600E+00
  2.79284600E+00
MicOpt                                     I   N=           6
          -1          -1          -1          -1          -1          -1
Number of contracted shells                I               18
Number of primitive shells                 I               40
Pure/Cartesian d shells                    I                1
Pure/Cartesian f shells                    I                0
Highest angular momentum                   I                2
Largest degree of contraction              I                6
Shell types                                I   N=          18
           0          -1          -1          -1           2           0
          -1          -1          -1           2           0           0
           0           0           0           0           0           0
Number of primitives per shell             I   N=          18
           6           3           1           1           1           6
           3           1           1           1           3           1
           3           1           3           1           3           1
Shell to atom map                          I   N=          18
           1           1           1           1           1           2
           2           2           2           2           3           3
           4           4           5           5           6           6
Primitive exponents                        R   N=          40
  3.04752488E+03  4.57369518E+02  1.03948685E+02  2.92101553E+01  9.28666296E+00
  3.16392696E+00  7.86827235E+00  1.88128854E+00  5.44249258E-01  1.68714478E-01
  4.38000000E-02  8.00000000E-01  3.04752488E+03  4.57369518E+02  1.03948685E+02
  2.92101553E+01  9.28666296E+00  3.16392696E+00  7.86827235E+00  1.88128854E+00
  5.44249258E-01  1.68714478E-01  4.38000000E-02  8.00000000E-01  1.87311370E+01
  2.82539436E+00  6.40121692E-01  1.61277759E-01  1.87311370E+01  2.82539436E+00
  6.40121692E-01  1.61277759E-01  1.87311370E+01  2.82539436E+00  6.40121692E-01
  1.61277759E-01  1.87311370E+01  2.82539436E+00  6.40121692E-01  1.61277759E-01
Contraction coefficients                   R   N=          40
  1.83473713E-03  1.40373228E-02  6.88426223E-02  2.32184443E-01  4.67941348E-01
  3.62311985E-01 -1.19332420E-01 -1.60854152E-01  1.14345644E+00  1.00000000E+00
  1.00000000E+00  1.00000000E+00  1.83473713E-03  1.40373228E-02  6.88426223E-02
  2.32184443E-01  4.67941348E-01  3.62311985E-01 -1.19332420E-01 -1.60854152E-01
  1.14345644E+00  1.00000000E+00  1.00000000E+00  1.00000000E+00  3.34946043E-02
  2.34726953E-01  8.13757326E-01  1.00000000E+00  3.34946043E-02  2.34726953E-01
  8.13757326E-01  1.00000000E+00  3.34946043E-02  2.34726953E-01  8.13757326E-01
  1.00000000E+00  3.34946043E-02  2.34726953E-01  8.13757326E-01  1.00000000E+00
P(S=P) Contraction coefficients            R   N=          40
  0.00000000E+00  0.00000000E+00  0.00000000E+00  0.00000000E+00  0.00000000E+00
  0.00000000E+00  6.89990666E-02  3.16423961E-01  7.44308291E-01  1.00000000E+00
  1.00000000E+00  0.00000000E+00  0.00000000E+00  0.00000000E+00  0.00000000E+00
  0.00000000E+00  0.00000000E+00  0.00000000E+00  6.89990666E-02  3.16423961E-01
  7.44308291E-01  1.00000000E+00  1.00000000E+00  0.00000000E+00  0.00000000E+00
  0.00000000E+00  0.00000000E+00  0.00000000E+00  0.00000000E+00  0.00000000E+00
  0.00000000E+00  0.00000000E+00  0.00000000E+00  0.00000000E+00  0.00000000E+00
  0.00000000E+00  0.00000000E+00  0.00000000E+00  0.00000000E+00  0.00000000E+00
Coordinates of each shell                  R   N=          54
  1.27131137E+00  0.00000000E+00  9.44863066E+00  1.27131137E+00  0.00000000E+00
  9.44863066E+00  1.27131137E+00  0.00000000E+00  9.44863066E+00  1.27131137E+00
  0.00000000E+00  9.44863066E+00  1.27131137E+00  0.00000000E+00  9.44863066E+00
 -1.27131137E+00  0.00000000E+00  9.44863066E+00 -1.27131137E+00  0.00000000E+00
  9.44863066E+00 -1.27131137E+00  0.00000000E+00  9.44863066E+00 -1.27131137E+00
  0.00000000E+00  9.44863066E+00 -1.27131137E+00  0.00000000E+00  9.44863066E+00
  2.34821716E+00  1.52985803E+00  8.56536700E+00  2.34821716E+00  1.52985803E+00
  8.56536700E+00  2.34821716E+00 -1.52985803E+00  1.03318943E+01  2.34821716E+00
 -1.52985803E+00  1.03318943E+01 -2.34821716E+00  1.52985803E+00  8.56536700E+00
 -2.34821716E+00  1.52985803E+00  8.56536700E+00 -2.34821716E+00 -1.52985803E+00
  1.03318943E+01 -2.34821716E+00 -1.52985803E+00  1.03318943E+01
Constraint Structure                       R   N=          18
  1.27131137E+00  0.00000000E+00  9.44863066E+00 -1.27131137E+00  0.00000000E+00
  9.44863066E+00  2.34821716E+00  1.52985803E+00  8.56536700E+00  2.34821716E+00
 -1.52985803E+00  1.03318943E+01 -2.34821716E+00  1.52985803E+00  8.56536700E+00
 -2.34821716E+00 -1.52985803E+00  1.03318943E+01
Num ILSW                                   I              100
ILSW                                       I   N=         100
           0           1           0           0           2           0
           0           0           0           0         402          -1
           5           0           0           0           0           0
           0           0           1           0           0           0
           1           1           0           0           0           0
           0           0      100000           0          -1           0
           0           0           0           0           0           0
           0           0           0           1           0           0
           0           0           1           0           0           0
           0           0           4          41           0           0
           0           0           5           0           0           0
           0           0           0           0           0           0
           0           0           0           0           0           0
           0           0           0           0           0           0
           0           0           0           0           0           0
           0           0           0           0           0           0
           0           0           0           0
Num RLSW                                   I               41
RLSW                                       R   N=          41
  8.00000000E-01  7.20000000E-01  1.00000000E+00  8.10000000E-01  2.00000000E-01
  0.00000000E+00  0.00000000E+00  1.00000000E+00  0.00000000E+00  0.00000000E+00
  0.00000000E+00  0.00000000E+00  1.00000000E+00  0.00000000E+00  0.00000000E+00
  0.00000000E+00  0.00000000E+00  1.00000000E+00  0.00000000E+00  0.00000000E+00
  0.00000000E+00  0.00000000E+00  1.00000000E+00  0.00000000E+00  0.00000000E+00
  0.00000000E+00  0.00000000E+00  1.00000000E+00  0.00000000E+00  0.00000000E+00
  0.00000000E+00  0.00000000E+00  1.00000000E+00  0.00000000E+00  0.00000000E+00
  0.00000000E+00  0.00000000E+00  0.00000000E+00  1.00000000E+00  1.00000000E+00
  0.00000000E+00
MxBond                                     I                3
NBond                                      I   N=           6
           3           3           1           1           1           1
IBond                                      I   N=          18
           2           3           4           1           5           6
           1           0           0           1           0           0
           2           0           0           2           0           0
RBond                                      R   N=          18
  2.00000000E+00  1.00000000E+00  1.00000000E+00  2.00000000E+00  1.00000000E+00
  1.00000000E+00  1.00000000E+00  0.00000000E+00  0.00000000E+00  1.00000000E+00
  0.00000000E+00  0.00000000E+00  1.00000000E+00  0.00000000E+00  0.00000000E+00
  1.00000000E+00  0.00000000E+00  0.00000000E+00
Virial Ratio                               R      2.011877548301915E+00
SCF Energy                                 R     -7.859298536297649E+01
Total Energy                               R     -7.859298536297649E+01
RMS Density                                R      1.139452555349714E-09
External E-field                           R   N=          35
  0.00000000E+00  0.00000000E+00  0.00000000E+00  0.00000000E+00  0.00000000E+00
  0.00000000E+00  0.00000000E+00  0.00000000E+00  0.00000000E+00  0.00000000E+00
  0.00000000E+00  0.00000000E+00  0.00000000E+00  0.00000000E+00  0.00000000E+00
  0.00000000E+00  0.00000000E+00  0.00000000E+00  0.00000000E+00  0.00000000E+00
  0.00000000E+00  0.00000000E+00  0.00000000E+00  0.00000000E+00  0.00000000E+00
  0.00000000E+00  0.00000000E+00  0.00000000E+00  0.00000000E+00  0.00000000E+00
  0.00000000E+00  0.00000000E+00  0.00000000E+00  0.00000000E+00  0.00000000E+00
IOpCl                                      I                0
IROHF                                      I                0
Alpha Orbital Energies                     R   N=          46
 -1.01987074E+01 -1.01979011E+01 -7.62055817E-01 -5.84478275E-01 -4.72680678E-01
 -4.22674222E-01 -3.63216623E-01 -2.75957363E-01 -9.87628625E-03  2.50205478E-02
  3.25739808E-02  4.67123976E-02  6.95702441E-02  8.67308094E-02  8.74548179E-02
  1.27516489E-01  1.56680441E-01  1.76424034E-01  1.90396150E-01  2.43026602E-01
  3.42326084E-01  3.47549235E-01  5.79938180E-01  6.57848320E-01  6.74689694E-01
  7.19168439E-01  7.56765192E-01  8.19623504E-01  8.99523697E-01  9.36430462E-01
  9.63238257E-01  1.00218263E+00  1.16203637E+00  1.21969403E+00  1.44779472E+00
  1.53897326E+00  1.81652143E+00  1.88523476E+00  1.99937170E+00  2.10768486E+00
  2.29199562E+00  2.37010251E+00  2.66501768E+00  2.70045678E+00  4.11589459E+00
  4.25146432E+00
Alpha MO coefficients                      R   N=        2116
  7.01848324E-01  3.45111660E-02  1.76542251E-04 -2.04013461E-15  1.27356424E-15
 -6.26439094E-03 -2.86415225E-04  1.20392779E-14 -6.96233943E-15  6.06911415E-04
 -7.56115155E-04  4.49272385E-15 -2.60118663E-15 -6.66403341E-03 -6.74149053E-03
 -6.84414590E-03 -2.56215805E-17 -8.30358079E-16 -1.02654859E-04  7.01848322E-01
  3.45111660E-02 -1.76542252E-04 -1.07421707E-15  4.45989908E-16 -6.26439092E-03
  2.86415230E-04  4.03817275E-15 -2.23915676E-15  6.06911378E-04  7.56115146E-04
  1.95386225E-15 -9.91711701E-16 -6.66403340E-03 -6.74149051E-03 -6.84414589E-03
 -6.53085016E-16  3.62907789E-16 -1.02654859E-04 -2.01446477E-04  1.01249179E-03
 -2.01446477E-04  1.01249179E-03 -2.01446477E-04  1.01249179E-03 -2.01446477E-04
  1.01249179E-03  7.02152905E-01  3.51944862E-02 -3.26946363E-04 -3.37594209E-15
  1.81766444E-15 -1.29491450E-02  2.34694924E-03  3.41495600E-14 -1.96258098E-14
  1.93773304E-02 -5.22205099E-03  1.60488536E-14 -8.84373665E-15 -6.23742731E-03
 -6.56791230E-03 -6.69186597E-03  3.39996639E-16 -1.93993234E-16 -1.23953051E-04
 -7.02152907E-01 -3.51944862E-02 -3.26946362E-04  3.57785926E-15 -2.00443319E-15
  1.29491450E-02  2.34694924E-03 -3.40202755E-14  1.96826946E-14 -1.93773304E-02
 -5.22205099E-03 -1.58779774E-14  8.86758679E-15  6.23742732E-03  6.56791231E-03
  6.69186599E-03  4.43075228E-16 -1.81204765E-16  1.23953051E-04 -1.03253925E-04
  1.16856128E-03 -1.03253925E-04  1.16856128E-03  1.03253925E-04 -1.16856128E-03
  1.03253925E-04 -1.16856128E-03 -1.59533645E-01  3.11273676E-01 -1.00793476E-01
  1.86788099E-15 -3.21900412E-15  2.33854008E-01 -4.33515740E-03 -1.84693521E-14
  9.41617753E-15  3.39859386E-03 -8.95593521E-04 -1.29464618E-14  6.54533517E-15
  8.12134162E-03 -3.95644838E-03 -1.23606994E-02 -1.98147950E-16  4.69954631E-16
 -8.40425356E-03 -1.59533645E-01  3.11273676E-01  1.00793476E-01  7.24536934E-16
 -2.86940122E-15  2.33854008E-01  4.33515739E-03 -3.33032983E-15  7.20291060E-16
  3.39859386E-03  8.95593522E-04  1.33139542E-15  9.19502786E-16  8.12134162E-03
 -3.95644838E-03 -1.23606994E-02  2.83984700E-16 -1.69055051E-16 -8.40425356E-03
  8.39624273E-02  1.50556465E-02  8.39624273E-02  1.50556465E-02  8.39624273E-02
  1.50556465E-02  8.39624273E-02  1.50556465E-02 -1.23823285E-01  2.49515750E-01
  1.70475249E-01  5.16225944E-15 -4.71222512E-15  2.50193966E-01  6.25062835E-02
 -3.17467762E-14  1.91746225E-14 -3.47772751E-02  1.77120860E-02 -2.29255195E-14
  1.02398080E-14 -8.42745711E-03  7.34500778E-03 -5.23782087E-03  2.14493722E-16
  2.04249960E-16 -1.25828223E-02  1.23823285E-01 -2.49515750E-01  1.70475249E-01
 -1.73509505E-15  2.69352861E-15 -2.50193966E-01  6.25062835E-02  3.16237357E-14
 -1.90038230E-14  3.47772751E-02  1.77120860E-02  2.31869834E-14 -1.05404236E-14
  8.42745711E-03 -7.34500778E-03  5.23782087E-03  3.76698014E-17  3.24031025E-16
  1.25828223E-02  1.45666661E-01  5.86722637E-02  1.45666661E-01  5.86722637E-02
 -1.45666661E-01 -5.86722637E-02 -1.45666661E-01 -5.86722637E-02  3.02402430E-15
  6.51490590E-15  1.18612463E-14  2.87221285E-01 -1.65827228E-01 -4.58990782E-14
  1.14131657E-14  1.08030681E-01 -6.23715420E-02  1.55930796E-12 -4.25149312E-13
  1.16794625E-02 -6.74303050E-03 -1.94670439E-15 -9.27414247E-16 -6.77287223E-16
  5.22112382E-03 -3.01441279E-03 -2.84508596E-16  3.27394281E-16 -4.19746699E-15
 -1.22419262E-14  2.87221285E-01 -1.65827228E-01  2.80765224E-14  1.66589758E-14
  1.08030681E-01 -6.23715420E-02 -1.56547908E-12 -4.28283329E-13  1.16794625E-02
 -6.74303050E-03 -1.67920862E-15 -2.04789381E-15 -1.71424322E-15 -5.22112382E-03
  3.01441279E-03 -1.88043932E-16  1.56715738E-01  9.72041596E-02 -1.56715738E-01
 -9.72041596E-02  1.56715738E-01  9.72041596E-02 -1.56715738E-01 -9.72041596E-02
  1.30020259E-02 -3.19744062E-02  4.15147934E-01 -9.07749076E-16  3.59538792E-15
  6.33125448E-03  1.39885178E-01 -1.76844437E-14  1.33120772E-14  1.80449935E-02
  3.14855838E-02 -1.48536959E-14  5.37051406E-15 -6.02862828E-03  1.42033389E-02
  4.79050504E-03  4.34817822E-16 -9.41373980E-16 -9.41281871E-03  1.30020259E-02
 -3.19744062E-02 -4.15147934E-01 -1.09441585E-14  9.88630754E-15  6.33125448E-03
 -1.39885178E-01  2.48920231E-14 -1.27530999E-14  1.80449935E-02 -3.14855838E-02
  1.89152668E-14 -7.79062371E-15 -6.02862828E-03  1.42033389E-02  4.79050504E-03
  2.55463573E-16  1.73501528E-16 -9.41281871E-03  1.25814815E-01  9.72211349E-02
  1.25814815E-01  9.72211349E-02  1.25814815E-01  9.72211349E-02  1.25814815E-01
  9.72211349E-02  2.48188053E-15  1.36220009E-14 -5.96371808E-15  2.68748859E-01
 -1.55162181E-01 -7.40488260E-14  3.20594729E-14  1.19297711E-01 -6.88765599E-02
  1.18758712E-12 -3.32313815E-13  3.76428291E-02 -2.17330949E-02 -3.70979569E-15
 -1.80515573E-15 -1.30193330E-15  2.60190176E-02 -1.50220771E-02  1.60238590E-16
 -3.73332152E-15 -1.24418427E-14  2.87237576E-15 -2.68748859E-01  1.55162181E-01
  8.52615195E-14  3.39241248E-14 -1.19297711E-01  6.88765599E-02 -1.20094968E-12
 -3.30764398E-13 -3.76428291E-02  2.17330949E-02  1.00645815E-15 -1.61921057E-15
 -2.45428594E-15  2.60190176E-02 -1.50220771E-02 -4.01194761E-16  1.97166359E-01
  1.71813368E-01 -1.97166359E-01 -1.71813368E-01 -1.97166359E-01 -1.71813368E-01
  1.97166359E-01  1.71813368E-01  1.26362299E-15  5.04142970E-15 -5.10507969E-15
  2.00957659E-01  3.48069177E-01 -3.96615285E-14 -1.40428616E-14  1.26974014E-01
  2.19925147E-01  1.09939619E-13 -3.93442145E-14  2.73775863E-02  4.74183602E-02
  2.11786919E-15  1.98848925E-15  2.13449554E-15 -8.21903333E-03 -1.42358066E-02
 -5.38702599E-17  1.06715033E-15  4.06457336E-15  5.34301330E-15  2.00957659E-01
  3.48069177E-01 -3.36858791E-14  1.08218861E-14  1.26974014E-01  2.19925147E-01
 -1.12733111E-13 -2.34557831E-14  2.73775863E-02  4.74183602E-02  1.85046741E-15
  2.17466411E-15  1.82137723E-15  8.21903333E-03  1.42358066E-02  1.43347493E-16
 -2.91539664E-09 -5.13416321E-07  2.91539707E-09  5.13416363E-07 -2.91539419E-09
 -5.13416266E-07  2.91539543E-09  5.13416303E-07  1.52904137E-15 -3.00803467E-16
  9.04830455E-16  1.87897389E-01  3.25447774E-01 -2.38657858E-14  9.95750816E-15
  2.22841633E-01  3.85973963E-01  5.47797914E-13 -1.40574190E-13  3.73504911E-01
  6.46933132E-01  1.31876402E-15  9.87542155E-16  9.55373255E-16  1.21264996E-02
  2.10036969E-02 -2.45784785E-16 -2.38359297E-15  5.55970554E-16 -5.53968215E-16
 -1.87897389E-01 -3.25447774E-01  4.01041271E-14  3.06554141E-15 -2.22841633E-01
 -3.85973963E-01 -5.47500961E-13 -1.42059500E-13 -3.73504911E-01 -6.46933132E-01
 -1.46022666E-15 -1.35288720E-15 -1.07114273E-15  1.21264996E-02  2.10036969E-02
 -8.79847860E-17  9.38204754E-09  5.19608163E-07 -9.38203943E-09 -5.19608184E-07
 -9.38204634E-09 -5.19608298E-07  9.38203813E-09  5.19608297E-07  5.10823700E-02
 -8.50848138E-02 -1.20579536E-01 -7.50617100E-15  1.29499178E-14 -5.16205847E-01
 -1.55343741E-01  1.57867922E-13 -8.94284400E-14  8.21983801E-01  4.27269170E-01
  1.88184628E-13 -1.23892020E-13  1.04837189E-04  2.95887068E-03  1.05853538E-02
  1.09466795E-16  1.15073659E-16  7.62647830E-03  5.10823700E-02 -8.50848139E-02
  1.20579536E-01 -5.76814570E-15  9.07868483E-15 -5.16205847E-01  1.55343741E-01
 -1.44060086E-13  8.20755962E-14  8.21983800E-01 -4.27269171E-01 -1.26152245E-13
  5.05518381E-14  1.04837190E-04  2.95887068E-03  1.05853538E-02 -8.38640617E-18
  3.86784363E-17  7.62647830E-03 -4.18281468E-03 -1.10601387E-02 -4.18281468E-03
 -1.10601387E-02 -4.18281468E-03 -1.10601387E-02 -4.18281468E-03 -1.10601387E-02
 -5.11818184E-02  1.09793658E-01  5.00244597E-02 -1.01110666E-13  5.30738108E-14
  3.83957269E-01  6.86204068E-02 -7.00405407E-13  3.98102855E-13  9.62672797E+00
 -3.29113239E+00 -3.60688794E-13  2.62413563E-13 -1.15312326E-02  6.20156862E-03
  5.40152995E-05  3.31497704E-15 -1.56054246E-15 -6.14755103E-03  5.11818184E-02
 -1.09793658E-01  5.00244597E-02 -1.13443319E-13  6.65514129E-14 -3.83957269E-01
  6.86204068E-02 -2.41534137E-13  1.35099132E-13 -9.62672797E+00 -3.29113239E+00
  2.67514346E-13 -1.85630749E-13  1.15312326E-02 -6.20156862E-03 -5.40153006E-05
 -4.97206451E-15  2.91269370E-15  6.14755103E-03 -2.42152996E-03 -8.14687026E-02
 -2.42152996E-03 -8.14687026E-02  2.42152996E-03  8.14687026E-02  2.42152996E-03
  8.14687026E-02  2.12705174E-14 -3.05546459E-14 -1.26494052E-14 -1.59411133E-01
  9.20283798E-02 -2.03646076E-13 -5.96150799E-15 -2.33998061E-01  1.35086390E-01
  3.67315574E-12 -8.53131012E-13  4.95634556E-01 -2.86124609E-01  4.90992589E-15
  5.96399984E-16  2.16531989E-15  2.84714462E-03 -1.64327696E-03  2.33427832E-15
 -2.52407211E-14  4.20900337E-14 -3.22054560E-14 -1.59411133E-01  9.20283798E-02
  2.44290858E-13 -3.07497886E-14 -2.33998061E-01  1.35086390E-01 -3.76007710E-12
 -7.07714557E-13  4.95634556E-01 -2.86124609E-01 -5.54691084E-15  6.01246959E-16
 -2.57798277E-15 -2.84714462E-03  1.64327696E-03 -2.74715197E-15  1.26781536E-02
  7.22395517E-02 -1.26781536E-02 -7.22395517E-02  1.26781536E-02  7.22395517E-02
 -1.26781536E-02 -7.22395517E-02 -8.92143364E-17 -1.61008879E-15 -7.18244282E-15
 -7.91024992E-02 -1.37028441E-01  1.45266357E-14  3.46585727E-15 -1.18244075E-01
 -2.04838828E-01  7.95755870E-13 -7.50969999E-14  3.01455859E-01  5.22178977E-01
  6.22585928E-17 -2.00798227E-15 -1.34314885E-15  5.63211919E-03  9.75573803E-03
  7.19127104E-16 -2.07810101E-15  2.25862346E-15  4.82924849E-15 -7.91024992E-02
 -1.37028441E-01  2.69862104E-14  1.06143712E-14 -1.18244075E-01 -2.04838828E-01
 -7.54173569E-13 -3.12336225E-13  3.01455859E-01  5.22178977E-01 -8.64615408E-17
 -1.95731664E-15 -1.56103692E-15 -5.63211919E-03 -9.75573803E-03  3.39962763E-16
 -1.06196383E-06 -1.25221732E-05  1.06196382E-06  1.25221732E-05 -1.06196381E-06
 -1.25221730E-05  1.06196380E-06  1.25221730E-05 -3.64066032E-02  4.13634519E-02
 -4.39895819E-02  1.09434040E-13 -5.73009738E-14  5.33507734E-01  4.93833024E-02
  6.41866375E-16  1.69353257E-14 -7.15276839E-03  1.45222961E+00 -1.61743078E-12
  9.19783543E-13  1.10797867E-02 -1.95194521E-02 -1.76165671E-02  7.02514484E-15
 -5.01831407E-15  1.90288118E-03 -3.64066032E-02  4.13634519E-02  4.39895819E-02
 -9.72705409E-14  7.11276973E-14  5.33507734E-01 -4.93833024E-02  5.06069761E-14
  1.09042812E-14 -7.15277013E-03 -1.45222961E+00  1.63264739E-12 -1.03392489E-12
  1.10797867E-02 -1.95194521E-02 -1.76165671E-02  8.81580168E-15 -4.22570559E-15
  1.90288118E-03 -2.08716723E-02 -9.03756216E-02 -2.08716723E-02 -9.03756216E-02
 -2.08716723E-02 -9.03756216E-02 -2.08716723E-02 -9.03756216E-02 -5.08102075E-14
  5.27952441E-14 -6.07006638E-15 -1.33366593E-01  7.70006543E-02  7.19040238E-13
  1.56905631E-13 -7.99253370E-02  4.61477341E-02 -5.96196214E-12  2.74320673E-12
  1.94064925E+00 -1.12044322E+00  6.42259841E-15 -1.67964106E-14 -1.60012501E-14
 -9.75224877E-03  5.63051288E-03  5.40794654E-16 -1.67971439E-14  2.54968118E-14
  4.25983350E-14  1.33366593E-01 -7.70006543E-02  3.01670627E-13 -1.90954039E-15
  7.99253370E-02 -4.61477341E-02  5.97302969E-12  4.18314247E-13 -1.94064925E+00
  1.12044322E+00  1.28477126E-14 -1.39413559E-14 -1.04653375E-14 -9.75224877E-03
  5.63051288E-03  3.00774026E-15 -1.74959666E-02 -1.71447572E-01  1.74959666E-02
  1.71447572E-01  1.74959666E-02  1.71447572E-01 -1.74959666E-02 -1.71447572E-01
 -1.62778331E-14  6.41983769E-15  2.65341057E-14 -1.32971070E-01 -2.30311084E-01
  3.11643468E-13  1.66032208E-13 -2.40116938E-01 -4.15891206E-01 -5.84671636E-13
  2.06324442E-13  9.94495310E-01  1.72250086E+00 -4.66878922E-15 -4.48163098E-15
 -2.31046441E-15 -4.55518884E-03 -7.88969881E-03  2.15546495E-15  3.67909895E-15
 -6.54572892E-15 -8.26037876E-15  1.32971070E-01  2.30311084E-01 -5.11983878E-15
  6.51473128E-15  2.40116938E-01  4.15891206E-01  7.42963392E-13  2.81127652E-13
 -9.94495310E-01 -1.72250086E+00  1.99925707E-15  1.17404836E-15  2.35390774E-15
 -4.55518884E-03 -7.88969881E-03  1.49534975E-15 -9.81862092E-08  7.26277807E-07
  9.81861704E-08 -7.26278411E-07  9.81861780E-08 -7.26278288E-07 -9.81861743E-08
  7.26278290E-07  5.59959514E-02 -8.19116913E-02 -8.92175625E-02 -1.54230045E-12
  8.71094354E-13 -5.69153592E-01 -4.25153456E-01 -6.67711176E-12  3.80149718E-12
  3.44829447E+01 -9.45797900E+00 -3.72410240E-12  2.28973735E-12  7.19655572E-03
  6.55339385E-03  9.00833818E-03  2.28408577E-13 -1.32813583E-13  2.45494288E-03
 -5.59959514E-02  8.19116913E-02 -8.92175625E-02 -1.35870808E-12  8.17146107E-13
  5.69153592E-01 -4.25153457E-01 -4.76751504E-12  2.80851353E-12 -3.44829447E+01
 -9.45797900E+00 -3.30695716E-12  1.74817992E-12 -7.19655572E-03 -6.55339385E-03
 -9.00833818E-03 -2.48127720E-13  1.43237740E-13 -2.45494288E-03  4.78146664E-02
  1.50600519E-01  4.78146664E-02  1.50600519E-01 -4.78146664E-02 -1.50600519E-01
 -4.78146664E-02 -1.50600519E-01 -5.98903993E-02  4.56241382E-02  1.63515994E-01
 -6.66192990E-14  8.60461237E-14  1.28814969E+00  6.42451850E-01  1.60586112E-13
 -4.13135937E-14  6.57716869E-01 -9.91613688E-02 -1.30344739E-13 -1.91999965E-13
 -3.55381520E-03 -1.69460896E-02  4.73233527E-03  2.02802065E-14 -1.02144261E-14
  2.16784156E-02 -5.98903993E-02  4.56241382E-02 -1.63515994E-01 -1.50132653E-13
  3.92530616E-14  1.28814969E+00 -6.42451849E-01 -8.99414584E-13  4.85442475E-13
  6.57716871E-01  9.91613694E-02 -3.60709251E-13  4.77908731E-13 -3.55381520E-03
 -1.69460896E-02  4.73233527E-03 -1.62190896E-14  1.21270250E-14  2.16784156E-02
 -1.00313755E-01 -1.23774849E+00 -1.00313755E-01 -1.23774849E+00 -1.00313755E-01
 -1.23774849E+00 -1.00313755E-01 -1.23774849E+00 -5.78014721E-13  1.02532274E-12
  9.79294366E-13 -1.94721602E-01  1.12420918E-01  5.52752185E-12  5.73755282E-12
 -6.31579008E-01  3.64640862E-01 -2.33446414E-10  6.58908740E-11 -3.91750655E-01
  2.26182102E-01 -6.05760829E-14 -6.34950111E-14 -6.55657749E-14  3.55854137E-02
 -2.05451127E-02  2.80762614E-15  6.54451889E-13 -1.06732395E-12  1.16080214E-12
 -1.94721602E-01  1.12420918E-01 -7.02293307E-12  6.52276686E-12 -6.31579008E-01
  3.64640862E-01  2.32706335E-10  6.56420822E-11 -3.91750655E-01  2.26182102E-01
  4.55174903E-14  6.86761930E-14  4.12843712E-14 -3.55854137E-02  2.05451127E-02
 -2.80510063E-14  1.38844945E-01  1.17409763E+00 -1.38844945E-01 -1.17409763E+00
  1.38844945E-01  1.17409763E+00 -1.38844945E-01 -1.17409763E+00 -7.67434048E-02
  9.79890730E-02  7.69700520E-02  6.06671274E-13 -2.99965909E-13  1.26022782E+00
  4.32511540E-01  6.26364163E-13 -3.25301292E-13  2.10445043E+01 -5.22219930E+00
  1.26089591E-13 -3.01599499E-13 -7.49785256E-03 -1.08946063E-02  2.97121338E-03
 -1.47271543E-13  8.50596487E-14  1.38658106E-02  7.67434048E-02 -9.79890730E-02
  7.69700520E-02  7.58061603E-13 -4.42863408E-13 -1.26022782E+00  4.32511540E-01
  2.58688215E-12 -1.56208465E-12 -2.10445043E+01 -5.22219930E+00  1.96576909E-12
 -9.11402609E-13  7.49785256E-03  1.08946063E-02 -2.97121338E-03  1.37375388E-13
 -7.63963752E-14 -1.38658106E-02 -1.22854867E-01 -1.40635611E+00 -1.22854867E-01
 -1.40635611E+00  1.22854867E-01  1.40635611E+00  1.22854867E-01  1.40635611E+00
  1.11580825E-13 -6.57347203E-14  2.52846808E-13 -3.28191456E-01  1.89481638E-01
 -3.54809800E-12  2.70346595E-12 -1.58447954E+00  9.14799439E-01 -1.56686675E-11
  3.85191733E-12 -1.60580672E+00  9.27111149E-01  1.39833676E-14 -3.33468069E-14
 -2.82547819E-14 -1.22390639E-02  7.06622613E-03  1.39184621E-14 -1.36313978E-13
 -1.49806678E-15  1.82938685E-13  3.28191456E-01 -1.89481638E-01  4.06950498E-12
  2.50762644E-12  1.58447954E+00 -9.14799439E-01  1.59076408E-11  3.92167306E-12
  1.60580672E+00 -9.27111149E-01 -3.72930055E-14 -6.70626599E-16  3.71696381E-15
 -1.22390639E-02  7.06622613E-03  8.03474782E-15  2.83081454E-02  1.90510014E+00
 -2.83081454E-02 -1.90510014E+00 -2.83081454E-02 -1.90510014E+00  2.83081454E-02
  1.90510014E+00  1.02496722E-01 -9.31732698E-02  2.23622453E-01  4.55959631E-13
 -2.55262026E-13 -3.29250153E+00  2.69469336E+00  1.63927375E-12 -9.53142714E-13
  6.00932518E+00 -1.90883676E+00  1.68578333E-12 -9.84848515E-13  3.24876769E-02
 -1.70324783E-02 -4.28814716E-03 -2.58592201E-14  1.36678730E-14  1.27443375E-02
 -1.02496722E-01  9.31732698E-02  2.23622453E-01 -1.70242955E-13  1.03821880E-13
  3.29250153E+00  2.69469336E+00 -1.35839015E-12  7.78934552E-13 -6.00932518E+00
 -1.90883676E+00 -1.44582451E-12  8.47516814E-13 -3.24876769E-02  1.70324783E-02
  4.28814716E-03  4.55981930E-14 -2.63013443E-14 -1.27443375E-02 -2.65673473E-02
 -2.38375298E-01 -2.65673473E-02 -2.38375298E-01  2.65673473E-02  2.38375298E-01
  2.65673473E-02  2.38375298E-01  2.82426065E-02  5.69174199E-02 -6.08879239E-01
 -3.33885117E-14  5.03366215E-14  4.23431177E-01  1.23450507E+00  7.85948418E-14
 -8.56148822E-14 -1.05186708E-01 -7.58982458E-01 -2.66309999E-14  2.59851890E-14
  7.49371632E-02 -4.80954446E-02 -2.26446458E-02 -1.82778101E-15 -2.06714597E-16
  2.54507734E-02  2.82426065E-02  5.69174199E-02  6.08879239E-01 -2.37505920E-14
  2.41518547E-14  4.23431177E-01 -1.23450507E+00  1.24330532E-15 -9.04401466E-15
 -1.05186708E-01  7.58982458E-01 -1.31338088E-14  1.53764072E-14  7.49371632E-02
 -4.80954446E-02 -2.26446458E-02  1.93722228E-15  1.90823394E-15  2.54507734E-02