B_60                                                                    
SP        RB3LYP                                                      6-31+G(d)           
Number of atoms                            I                6
Info1-9                                    I   N=           9
          15          15           0           0           0         110
           1          18        -502
Charge                                     I                0
Multiplicity                               I                1
Number of electrons                        I               16
Number of alpha electrons                  I                8
Number of beta electrons                   I                8
Number of basis functions                  I               46
Number of independent functions            I               46
Number of point charges in /Mol/           I                0
Number of translation vectors              I                0
Atomic numbers                             I   N=           6
           6           6           1           1           1           1
Nuclear charges                            R   N=           6
  6.00000000E+00  6.00000000E+00  1.00000000E+00  1.00000000E+00  1.00000000E+00
  1.00000000E+00
Current cartesian coordinates              R   N=          18
  1.27131137E+00  0.00000000E+00  9.44863066E+00 -1.27131137E+00  0.00000000E+00
  9.44863066E+00  2.34821716E+00  8.83263664E-01  7.91877264E+00  2.34821716E+00
 -8.83263664E-01  1.09784887E+01 -2.34821716E+00  8.83263664E-01  7.91877264E+00
 -2.34821716E+00 -8.83263664E-01  1.09784887E+01
Force Field                                I                0
Int Atom Types                             I   N=           6
           0           0           0           0           0           0
MM charges                                 R   N=           6
  0.00000000E+00  0.00000000E+00  0.00000000E+00  0.00000000E+00  0.00000000E+00
  0.00000000E+00
Integer atomic weights                     I   N=           6
          12          12           1           1           1           1
Real atomic weights                        R   N=           6
  1.20000000E+01  1.20000000E+01  1.00782504E+00  1.00782504E+00  1.00782504E+00
  1.00782504E+00
Atom fragment info                         I   N=           6
           0           0           0           0           0           0
Atom residue num                           I   N=           6
           0           0           0           0           0           0
Nuclear spins                              I   N=           6
           0           0           1           1           1           1
Nuclear ZEff                               R   N=           6
 -3.60000000E+00 -3.60000000E+00 -1.00000000E+00 -1.00000000E+00 -1.00000000E+00
 -1.00000000E+00
Nuclear ZNuc                               R   N=           6
  6.00000000E+00  6.00000000E+00  1.00000000E+00  1.00000000E+00  1.00000000E+00
  1.00000000E+00
Nuclear QMom                               R   N=           6
  0.00000000E+00  0.00000000E+00  0.00000000E+00  0.00000000E+00  0.00000000E+00
  0.00000000E+00
Nuclear GFac                               R   N=           6
  0.00000000E+00  0.00000000E+00  2.79284600E+00  2.79284600E+00  2.79284600E+00
  2.79284600E+00
MicOpt                                     I   N=           6
          -1          -1          -1          -1          -1          -1
Number of contracted shells                I               18
Number of primitive shells                 I               40
Pure/Cartesian d shells                    I                1
Pure/Cartesian f shells                    I                0
Highest angular momentum                   I                2
Largest degree of contraction              I                6
Shell types                                I   N=          18
           0          -1          -1          -1           2           0
          -1          -1          -1           2           0           0
           0           0           0           0           0           0
Number of primitives per shell             I   N=          18
           6           3           1           1           1           6
           3           1           1           1           3           1
           3           1           3           1           3           1
Shell to atom map                          I   N=          18
           1           1           1           1           1           2
           2           2           2           2           3           3
           4           4           5           5           6           6
Primitive exponents                        R   N=          40
  3.04752488E+03  4.57369518E+02  1.03948685E+02  2.92101553E+01  9.28666296E+00
  3.16392696E+00  7.86827235E+00  1.88128854E+00  5.44249258E-01  1.68714478E-01
  4.38000000E-02  8.00000000E-01  3.04752488E+03  4.57369518E+02  1.03948685E+02
  2.92101553E+01  9.28666296E+00  3.16392696E+00  7.86827235E+00  1.88128854E+00
  5.44249258E-01  1.68714478E-01  4.38000000E-02  8.00000000E-01  1.87311370E+01
  2.82539436E+00  6.40121692E-01  1.61277759E-01  1.87311370E+01  2.82539436E+00
  6.40121692E-01  1.61277759E-01  1.87311370E+01  2.82539436E+00  6.40121692E-01
  1.61277759E-01  1.87311370E+01  2.82539436E+00  6.40121692E-01  1.61277759E-01
Contraction coefficients                   R   N=          40
  1.83473713E-03  1.40373228E-02  6.88426223E-02  2.32184443E-01  4.67941348E-01
  3.62311985E-01 -1.19332420E-01 -1.60854152E-01  1.14345644E+00  1.00000000E+00
  1.00000000E+00  1.00000000E+00  1.83473713E-03  1.40373228E-02  6.88426223E-02
  2.32184443E-01  4.67941348E-01  3.62311985E-01 -1.19332420E-01 -1.60854152E-01
  1.14345644E+00  1.00000000E+00  1.00000000E+00  1.00000000E+00  3.34946043E-02
  2.34726953E-01  8.13757326E-01  1.00000000E+00  3.34946043E-02  2.34726953E-01
  8.13757326E-01  1.00000000E+00  3.34946043E-02  2.34726953E-01  8.13757326E-01
  1.00000000E+00  3.34946043E-02  2.34726953E-01  8.13757326E-01  1.00000000E+00
P(S=P) Contraction coefficients            R   N=          40
  0.00000000E+00  0.00000000E+00  0.00000000E+00  0.00000000E+00  0.00000000E+00
  0.00000000E+00  6.89990666E-02  3.16423961E-01  7.44308291E-01  1.00000000E+00
  1.00000000E+00  0.00000000E+00  0.00000000E+00  0.00000000E+00  0.00000000E+00
  0.00000000E+00  0.00000000E+00  0.00000000E+00  6.89990666E-02  3.16423961E-01
  7.44308291E-01  1.00000000E+00  1.00000000E+00  0.00000000E+00  0.00000000E+00
  0.00000000E+00  0.00000000E+00  0.00000000E+00  0.00000000E+00  0.00000000E+00
  0.00000000E+00  0.00000000E+00  0.00000000E+00  0.00000000E+00  0.00000000E+00
  0.00000000E+00  0.00000000E+00  0.00000000E+00  0.00000000E+00  0.00000000E+00
Coordinates of each shell                  R   N=          54
  1.27131137E+00  0.00000000E+00  9.44863066E+00  1.27131137E+00  0.00000000E+00
  9.44863066E+00  1.27131137E+00  0.00000000E+00  9.44863066E+00  1.27131137E+00
  0.00000000E+00  9.44863066E+00  1.27131137E+00  0.00000000E+00  9.44863066E+00
 -1.27131137E+00  0.00000000E+00  9.44863066E+00 -1.27131137E+00  0.00000000E+00
  9.44863066E+00 -1.27131137E+00  0.00000000E+00  9.44863066E+00 -1.27131137E+00
  0.00000000E+00  9.44863066E+00 -1.27131137E+00  0.00000000E+00  9.44863066E+00
  2.34821716E+00  8.83263664E-01  7.91877264E+00  2.34821716E+00  8.83263664E-01
  7.91877264E+00  2.34821716E+00 -8.83263664E-01  1.09784887E+01  2.34821716E+00
 -8.83263664E-01  1.09784887E+01 -2.34821716E+00  8.83263664E-01  7.91877264E+00
 -2.34821716E+00  8.83263664E-01  7.91877264E+00 -2.34821716E+00 -8.83263664E-01
  1.09784887E+01 -2.34821716E+00 -8.83263664E-01  1.09784887E+01
Constraint Structure                       R   N=          18
  1.27131137E+00  0.00000000E+00  9.44863066E+00 -1.27131137E+00  0.00000000E+00
  9.44863066E+00  2.34821716E+00  8.83263664E-01  7.91877264E+00  2.34821716E+00
 -8.83263664E-01  1.09784887E+01 -2.34821716E+00  8.83263664E-01  7.91877264E+00
 -2.34821716E+00 -8.83263664E-01  1.09784887E+01
Num ILSW                                   I              100
ILSW                                       I   N=         100
           0           1           0           0           2           0
           0           0           0           0         402          -1
           5           0           0           0           0           0
           0           0           1           0           0           0
           1           1           0           0           0           0
           0           0      100000           0          -1           0
           0           0           0           0           0           0
           0           0           0           1           0           0
           0           0           1           0           0           0
           0           0           4          41           0           0
           0           0           5           0           0           0
           0           0           0           0           0           0
           0           0           0           0           0           0
           0           0           0           0           0           0
           0           0           0           0           0           0
           0           0           0           0           0           0
           0           0           0           0
Num RLSW                                   I               41
RLSW                                       R   N=          41
  8.00000000E-01  7.20000000E-01  1.00000000E+00  8.10000000E-01  2.00000000E-01
  0.00000000E+00  0.00000000E+00  1.00000000E+00  0.00000000E+00  0.00000000E+00
  0.00000000E+00  0.00000000E+00  1.00000000E+00  0.00000000E+00  0.00000000E+00
  0.00000000E+00  0.00000000E+00  1.00000000E+00  0.00000000E+00  0.00000000E+00
  0.00000000E+00  0.00000000E+00  1.00000000E+00  0.00000000E+00  0.00000000E+00
  0.00000000E+00  0.00000000E+00  1.00000000E+00  0.00000000E+00  0.00000000E+00
  0.00000000E+00  0.00000000E+00  1.00000000E+00  0.00000000E+00  0.00000000E+00
  0.00000000E+00  0.00000000E+00  0.00000000E+00  1.00000000E+00  1.00000000E+00
  0.00000000E+00
MxBond                                     I                3
NBond                                      I   N=           6
           3           3           1           1           1           1
IBond                                      I   N=          18
           2           3           4           1           5           6
           1           0           0           1           0           0
           2           0           0           2           0           0
RBond                                      R   N=          18
  2.00000000E+00  1.00000000E+00  1.00000000E+00  2.00000000E+00  1.00000000E+00
  1.00000000E+00  1.00000000E+00  0.00000000E+00  0.00000000E+00  1.00000000E+00
  0.00000000E+00  0.00000000E+00  1.00000000E+00  0.00000000E+00  0.00000000E+00
  1.00000000E+00  0.00000000E+00  0.00000000E+00
Virial Ratio                               R      2.011877548301912E+00
SCF Energy                                 R     -7.859298536297652E+01
Total Energy                               R     -7.859298536297652E+01
RMS Density                                R      1.139484930724511E-09
External E-field                           R   N=          35
  0.00000000E+00  0.00000000E+00  0.00000000E+00  0.00000000E+00  0.00000000E+00
  0.00000000E+00  0.00000000E+00  0.00000000E+00  0.00000000E+00  0.00000000E+00
  0.00000000E+00  0.00000000E+00  0.00000000E+00  0.00000000E+00  0.00000000E+00
  0.00000000E+00  0.00000000E+00  0.00000000E+00  0.00000000E+00  0.00000000E+00
  0.00000000E+00  0.00000000E+00  0.00000000E+00  0.00000000E+00  0.00000000E+00
  0.00000000E+00  0.00000000E+00  0.00000000E+00  0.00000000E+00  0.00000000E+00
  0.00000000E+00  0.00000000E+00  0.00000000E+00  0.00000000E+00  0.00000000E+00
IOpCl                                      I                0
IROHF                                      I                0
Alpha Orbital Energies                     R   N=          46
 -1.01987074E+01 -1.01979011E+01 -7.62055817E-01 -5.84478275E-01 -4.72680678E-01
 -4.22674222E-01 -3.63216623E-01 -2.75957363E-01 -9.87628625E-03  2.50205478E-02
  3.25739808E-02  4.67123976E-02  6.95702441E-02  8.67308094E-02  8.74548179E-02
  1.27516489E-01  1.56680441E-01  1.76424034E-01  1.90396150E-01  2.43026602E-01
  3.42326084E-01  3.47549235E-01  5.79938180E-01  6.57848320E-01  6.74689694E-01
  7.19168439E-01  7.56765192E-01  8.19623504E-01  8.99523697E-01  9.36430462E-01
  9.63238257E-01  1.00218263E+00  1.16203637E+00  1.21969403E+00  1.44779472E+00
  1.53897326E+00  1.81652143E+00  1.88523476E+00  1.99937170E+00  2.10768486E+00
  2.29199562E+00  2.37010251E+00  2.66501768E+00  2.70045678E+00  4.11589459E+00
  4.25146432E+00
Alpha MO coefficients                      R   N=        2116
  7.01848323E-01  3.45111660E-02  1.76542252E-04 -8.12646125E-17  3.74814763E-16
 -6.26439093E-03 -2.86415227E-04  1.76073245E-15 -3.06659304E-15  6.06911402E-04
 -7.56115152E-04  2.34883042E-16  1.16955052E-15 -6.66403341E-03 -6.84414589E-03
 -6.74149052E-03  5.51951324E-16  1.69624710E-16 -1.02654859E-04  7.01848323E-01
  3.45111660E-02 -1.76542252E-04  1.30463120E-16 -1.34905700E-16 -6.26439093E-03
  2.86415228E-04  3.83431194E-17  6.93318058E-16  6.06911392E-04  7.56115149E-04
  3.69528336E-16 -2.26820998E-15 -6.66403340E-03 -6.84414589E-03 -6.74149052E-03
 -4.37612404E-16  1.42464902E-16 -1.02654859E-04 -2.01446477E-04  1.01249179E-03
 -2.01446477E-04  1.01249179E-03 -2.01446477E-04  1.01249179E-03 -2.01446477E-04
  1.01249179E-03  7.02152906E-01  3.51944862E-02 -3.26946363E-04 -7.99012525E-16
  1.28486176E-15 -1.29491450E-02  2.34694924E-03  9.26731377E-15 -1.57031463E-14
  1.93773304E-02 -5.22205099E-03  4.81009762E-15 -9.54241641E-15 -6.23742731E-03
 -6.69186598E-03 -6.56791231E-03  7.22518000E-17  1.03575487E-17 -1.23953051E-04
 -7.02152906E-01 -3.51944862E-02 -3.26946363E-04  1.07918123E-15 -1.60910259E-15
  1.29491450E-02  2.34694924E-03 -1.00342356E-14  1.70891910E-14 -1.93773304E-02
 -5.22205099E-03 -5.02469168E-15  1.02614018E-14  6.23742732E-03  6.69186598E-03
  6.56791231E-03  1.29902984E-16 -2.06284301E-16  1.23953051E-04 -1.03253925E-04
  1.16856128E-03 -1.03253925E-04  1.16856128E-03  1.03253925E-04 -1.16856128E-03
  1.03253925E-04 -1.16856128E-03 -1.59533645E-01  3.11273676E-01 -1.00793476E-01
 -3.16903522E-15 -1.96304662E-15  2.33854008E-01 -4.33515739E-03 -2.05343698E-15
 -5.70793933E-16  3.39859385E-03 -8.95593518E-04  4.18693652E-16 -7.58200130E-16
  8.12134162E-03 -1.23606994E-02 -3.95644838E-03  5.60573156E-16 -7.19358698E-17
 -8.40425356E-03 -1.59533645E-01  3.11273676E-01  1.00793476E-01 -2.55347829E-15
 -1.94886303E-15  2.33854008E-01  4.33515739E-03 -3.53988113E-15  1.20149147E-15
  3.39859387E-03  8.95593526E-04 -1.45963923E-15  3.52554123E-15  8.12134162E-03
 -1.23606994E-02 -3.95644838E-03 -3.34690602E-16 -1.03999052E-16 -8.40425356E-03
  8.39624273E-02  1.50556465E-02  8.39624273E-02  1.50556465E-02  8.39624273E-02
  1.50556465E-02  8.39624273E-02  1.50556465E-02 -1.23823285E-01  2.49515750E-01
  1.70475249E-01  6.26467808E-16 -5.25101602E-15  2.50193966E-01  6.25062835E-02
 -2.24055154E-14  3.57299095E-14 -3.47772751E-02  1.77120860E-02 -1.43760597E-14
  2.07993154E-14 -8.42745711E-03 -5.23782087E-03  7.34500778E-03 -3.48537840E-16
 -3.88076445E-16 -1.25828223E-02  1.23823285E-01 -2.49515750E-01  1.70475249E-01
 -8.67945026E-16  4.90376369E-15 -2.50193966E-01  6.25062835E-02  1.47376127E-14
 -2.26781396E-14  3.47772751E-02  1.77120860E-02  1.16499025E-14 -1.65200956E-14
  8.42745711E-03  5.23782087E-03 -7.34500778E-03  1.55069926E-16 -9.61599703E-16
  1.25828223E-02  1.45666661E-01  5.86722637E-02  1.45666661E-01  5.86722637E-02
 -1.45666661E-01 -5.86722637E-02 -1.45666661E-01 -5.86722637E-02  2.36743937E-15
  1.14039763E-14 -5.16161841E-16 -1.65827228E-01  2.87221285E-01 -8.56998235E-14
  5.24315228E-14 -6.23715420E-02  1.08030681E-01  2.51328928E-12 -6.83967470E-13
 -6.74303050E-03  1.16794625E-02 -3.13104712E-16  4.05024137E-15  2.94878216E-15
 -3.01441279E-03  5.22112382E-03 -5.25480852E-16 -2.55909539E-15 -1.13734846E-14
  2.23042315E-15 -1.65827228E-01  2.87221285E-01  9.50457388E-14  4.53051034E-14
 -6.23715420E-02  1.08030681E-01 -2.49394172E-12 -6.86992376E-13 -6.74303050E-03
  1.16794625E-02  1.84319741E-15 -8.37218594E-16 -2.10543569E-15  3.01441279E-03
 -5.22112382E-03 -1.89275988E-16 -1.56715738E-01 -9.72041596E-02  1.56715738E-01
  9.72041596E-02 -1.56715738E-01 -9.72041596E-02  1.56715738E-01  9.72041596E-02
  1.30020259E-02 -3.19744062E-02  4.15147934E-01 -3.46550534E-16  5.36885638E-15
  6.33125448E-03  1.39885178E-01 -5.27656707E-15  1.39615025E-14  1.80449935E-02
  3.14855838E-02 -1.46221224E-15 -2.46704612E-15 -6.02862828E-03  4.79050504E-03
  1.42033389E-02 -1.58778398E-15  3.02844080E-16 -9.41281871E-03  1.30020259E-02
 -3.19744062E-02 -4.15147934E-01  3.58777776E-15 -2.27004295E-15  6.33125448E-03
 -1.39885178E-01 -1.56631013E-15  5.16153751E-15  1.80449935E-02 -3.14855838E-02
 -3.12937095E-15  7.32454460E-15 -6.02862828E-03  4.79050504E-03  1.42033389E-02
  5.60560700E-16  3.92613732E-16 -9.41281871E-03  1.25814815E-01  9.72211349E-02
  1.25814815E-01  9.72211349E-02  1.25814815E-01  9.72211349E-02  1.25814815E-01
  9.72211349E-02 -4.65716330E-16  6.65841437E-15 -5.08208962E-15 -1.55162181E-01
  2.68748859E-01  1.37025673E-16  1.43626450E-14 -6.88765599E-02  1.19297711E-01
  5.04897919E-12 -1.37249332E-12 -2.17330949E-02  3.76428291E-02  2.05186316E-15
  1.75452928E-15  7.76368422E-16 -1.50220771E-02  2.60190176E-02 -9.73497894E-16
  8.55815289E-17 -8.87108071E-16  1.01810863E-14  1.55162181E-01 -2.68748859E-01
 -6.71890094E-15  1.74824962E-14  6.88765599E-02 -1.19297711E-01 -5.05430809E-12
 -1.36808592E-12  2.17330949E-02 -3.76428291E-02 -3.04102149E-15 -2.04795364E-15
 -2.85325111E-15 -1.50220771E-02  2.60190176E-02  1.38419163E-15 -1.97166359E-01
 -1.71813368E-01  1.97166359E-01  1.71813368E-01  1.97166359E-01  1.71813368E-01
 -1.97166359E-01 -1.71813368E-01  2.92454215E-16  5.28024254E-15 -5.71944530E-15
  3.48069177E-01  2.00957659E-01 -3.23992246E-14 -1.28153894E-14  2.19925147E-01
  1.26974014E-01 -4.30917499E-14  5.99154065E-15  4.74183602E-02  2.73775863E-02
  2.13715513E-15  5.98546215E-16  1.68586376E-15 -1.42358066E-02 -8.21903333E-03
 -6.79756581E-16  7.86723793E-17  4.97631483E-15  5.63897534E-15  3.48069177E-01
  2.00957659E-01 -2.46202981E-14  8.50141052E-15  2.19925147E-01  1.26974014E-01
  3.58868897E-14  1.19239903E-14  4.74183602E-02  2.73775863E-02  1.52080106E-15
  4.93587518E-16  1.22327604E-15  1.42358066E-02  8.21903333E-03 -7.73859705E-16
  2.91539706E-09  5.13416373E-07 -2.91539598E-09 -5.13416327E-07  2.91538896E-09
  5.13416438E-07 -2.91538605E-09 -5.13416412E-07  3.32491423E-15 -6.98286262E-16
  9.08141718E-16  3.25447774E-01  1.87897389E-01 -6.03990861E-14 -1.26341754E-14
  3.85973963E-01  2.22841633E-01 -6.08505858E-13  1.66291743E-13  6.46933132E-01
  3.73504911E-01  2.46745229E-15  3.35540292E-16  1.25921431E-15  2.10036969E-02
  1.21264996E-02 -4.94550848E-16 -4.37815873E-15  1.45213863E-15 -9.32919824E-16
 -3.25447774E-01 -1.87897389E-01  7.90473638E-14 -2.03865460E-14 -3.85973963E-01
 -2.22841633E-01  6.09298272E-13  1.63154409E-13 -6.46933132E-01 -3.73504911E-01
 -2.46006442E-15 -8.59651399E-16 -1.24245595E-15  2.10036969E-02  1.21264996E-02
  5.36393648E-16 -9.38200366E-09 -5.19605785E-07  9.38200947E-09  5.19605875E-07
  9.38202387E-09  5.19605323E-07 -9.38203040E-09 -5.19605437E-07  5.10823700E-02
 -8.50848138E-02 -1.20579536E-01  1.02038199E-15  1.30323350E-14 -5.16205847E-01
 -1.55343741E-01  1.58996120E-16  7.65417213E-15  8.21983801E-01  4.27269170E-01
 -2.26550245E-15 -2.00125606E-14  1.04837189E-04  1.05853538E-02  2.95887068E-03
  1.61633814E-16 -1.64167349E-16  7.62647830E-03  5.10823700E-02 -8.50848139E-02
  1.20579536E-01 -1.48769658E-16  1.25430161E-14 -5.16205847E-01  1.55343741E-01
  1.80276587E-14 -2.41295577E-14  8.21983800E-01 -4.27269171E-01  1.10365867E-14
 -7.59242285E-14  1.04837190E-04  1.05853538E-02  2.95887068E-03  1.56326527E-16
  5.43717178E-16  7.62647830E-03 -4.18281468E-03 -1.10601387E-02 -4.18281468E-03
 -1.10601387E-02 -4.18281468E-03 -1.10601387E-02 -4.18281468E-03 -1.10601387E-02
 -5.11818184E-02  1.09793658E-01  5.00244597E-02  1.06282130E-13 -1.75373013E-13
  3.83957269E-01  6.86204068E-02  9.85276768E-13 -1.70412620E-12  9.62672797E+00
 -3.29113239E+00  5.78313992E-13 -8.99691652E-13 -1.15312326E-02  5.40153001E-05
  6.20156862E-03 -2.08904366E-15  4.33856701E-15 -6.14755103E-03  5.11818184E-02
 -1.09793658E-01  5.00244597E-02  1.01882192E-13 -1.82892503E-13 -3.83957269E-01
  6.86204068E-02 -5.35801213E-15  9.52233909E-15 -9.62672797E+00 -3.29113239E+00
 -4.43494637E-13  6.61200564E-13  1.15312326E-02 -5.40153011E-05 -6.20156862E-03
  5.90110896E-15 -9.48016211E-15  6.14755103E-03 -2.42152996E-03 -8.14687026E-02
 -2.42152996E-03 -8.14687026E-02  2.42152996E-03  8.14687026E-02  2.42152996E-03
  8.14687026E-02  4.06111552E-14 -6.52441504E-14 -4.50148615E-14  9.20283798E-02
 -1.59411133E-01 -3.96853657E-13 -7.59292776E-15  1.35086390E-01 -2.33998061E-01
  6.50805319E-12 -1.26040000E-12 -2.86124609E-01  4.95634556E-01  7.93171436E-15
  3.00683856E-15 -1.03478868E-15 -1.64327696E-03  2.84714462E-03  5.28939326E-15
 -3.81070624E-14  5.56326607E-14 -2.85921006E-14  9.20283798E-02 -1.59411133E-01
  3.81436644E-13  1.48707900E-14  1.35086390E-01 -2.33998061E-01 -6.41929284E-12
 -1.45519297E-12 -2.86124609E-01  4.95634556E-01 -8.26768773E-15 -5.46637323E-15
 -6.90244909E-16  1.64327696E-03 -2.84714462E-03 -3.87956322E-15 -1.26781536E-02
 -7.22395517E-02  1.26781536E-02  7.22395517E-02 -1.26781536E-02 -7.22395517E-02
  1.26781536E-02  7.22395517E-02 -2.52439414E-15  4.08318597E-16 -2.16202918E-15
 -1.37028441E-01 -7.91024992E-02  5.38314636E-14  1.79986703E-14 -2.04838828E-01
 -1.18244075E-01 -1.87967501E-13  1.63443258E-13  5.22178977E-01  3.01455859E-01
 -4.92962253E-16 -1.04752013E-15 -2.01105193E-15  9.75573803E-03  5.63211919E-03
  8.93847106E-16 -5.87721360E-16 -1.55029964E-15  4.15197071E-15 -1.37028441E-01
 -7.91024992E-02  2.97900852E-14 -3.65721142E-15 -2.04838828E-01 -1.18244075E-01
  2.67958180E-13 -3.93573547E-14  5.22178977E-01  3.01455859E-01  1.72340181E-16
 -7.09369438E-16 -1.69761200E-15 -9.75573803E-03 -5.63211919E-03  1.03518426E-15
  1.06196398E-06  1.25221743E-05 -1.06196399E-06 -1.25221744E-05  1.06196425E-06
  1.25221797E-05 -1.06196426E-06 -1.25221798E-05 -3.64066032E-02  4.13634519E-02
 -4.39895819E-02  9.08262653E-14 -1.46673849E-13  5.33507734E-01  4.93833024E-02
  7.68345423E-14 -1.05390276E-13 -7.15276897E-03  1.45222961E+00 -1.11978933E-12
  1.88768471E-12  1.10797867E-02 -1.76165671E-02 -1.95194521E-02  3.88585390E-15
 -7.52112658E-15  1.90288118E-03 -3.64066032E-02  4.13634519E-02  4.39895819E-02
 -5.59799603E-14  1.17453202E-13  5.33507734E-01 -4.93833024E-02  8.27478528E-14
 -9.65086115E-14 -7.15276955E-03 -1.45222961E+00  1.16468210E-12 -2.11650396E-12
  1.10797867E-02 -1.76165671E-02 -1.95194521E-02  7.41748511E-15 -1.21199393E-14
  1.90288118E-03 -2.08716723E-02 -9.03756216E-02 -2.08716723E-02 -9.03756216E-02
 -2.08716723E-02 -9.03756216E-02 -2.08716723E-02 -9.03756216E-02  1.82177633E-14
 -4.06790505E-15  7.65618259E-14  7.70006543E-02 -1.33366593E-01 -4.41432204E-13
  3.98162947E-14  4.61477340E-02 -7.99253370E-02 -1.64851836E-11  2.85887175E-12
 -1.12044322E+00  1.94064925E+00 -1.62357292E-14  1.44229769E-14  1.82097655E-14
  5.63051288E-03 -9.75224877E-03 -3.42929629E-15  4.72364288E-14 -8.31202142E-14
 -2.93371091E-14 -7.70006543E-02  1.33366593E-01 -4.53628619E-13  6.08299205E-14
 -4.61477341E-02  7.99253370E-02  1.65635459E-11  5.76876857E-12  1.12044322E+00
 -1.94064925E+00 -6.63795584E-15  2.03189052E-14  2.00132835E-14  5.63051288E-03
 -9.75224877E-03  5.68507447E-16  1.74959666E-02  1.71447572E-01 -1.74959666E-02
 -1.71447572E-01 -1.74959666E-02 -1.71447572E-01  1.74959666E-02  1.71447572E-01
 -1.10607650E-14  4.70208485E-15  1.65059888E-14 -2.30311084E-01 -1.32971070E-01
  2.16126857E-13  9.77432903E-14 -4.15891206E-01 -2.40116938E-01 -3.16132411E-13
  1.28885444E-13  1.72250086E+00  9.94495310E-01 -2.96488017E-15 -8.20881269E-16
 -3.03015960E-15 -7.88969881E-03 -4.55518884E-03  1.80434004E-15  2.16389404E-15
 -2.24868806E-15 -7.34657749E-15  2.30311084E-01  1.32971070E-01 -1.11455534E-14
 -7.18845536E-15  4.15891206E-01  2.40116938E-01  4.12753305E-13  1.68900666E-13
 -1.72250086E+00 -9.94495310E-01  1.65562668E-15  1.06633188E-15  7.05385185E-16
 -7.88969881E-03 -4.55518884E-03  4.46225459E-16  9.81854854E-08 -7.26276862E-07
 -9.81855171E-08  7.26276469E-07 -9.81858989E-08  7.26271589E-07  9.81859064E-08
 -7.26271587E-07  5.59959514E-02 -8.19116913E-02 -8.92175625E-02  1.64121061E-12
 -2.86176754E-12 -5.69153592E-01 -4.25153456E-01  8.22252680E-12 -1.43057021E-11
  3.44829447E+01 -9.45797900E+00  4.82520219E-12 -8.21695492E-12  7.19655572E-03
  9.00833818E-03  6.55339385E-03 -2.36682843E-13  4.11577291E-13  2.45494288E-03
 -5.59959514E-02  8.19116913E-02 -8.92175625E-02  1.38190043E-12 -2.39200360E-12
  5.69153592E-01 -4.25153456E-01  3.84110798E-12 -6.59072625E-12 -3.44829447E+01
 -9.45797900E+00  2.60486343E-12 -4.62013598E-12 -7.19655572E-03 -9.00833818E-03
 -6.55339385E-03  2.61662779E-13 -4.54467471E-13 -2.45494288E-03  4.78146664E-02
  1.50600519E-01  4.78146664E-02  1.50600519E-01 -4.78146664E-02 -1.50600519E-01
 -4.78146664E-02 -1.50600519E-01 -5.98903993E-02  4.56241382E-02  1.63515994E-01
  2.34220517E-13 -3.29503159E-13  1.28814969E+00  6.42451849E-01  9.04494313E-13
 -1.50487092E-12  6.57716870E-01 -9.91613692E-02  4.41573408E-13 -1.09684224E-12
 -3.55381520E-03  4.73233527E-03 -1.69460896E-02 -3.70413498E-14  6.31500006E-14
  2.16784156E-02 -5.98903993E-02  4.56241382E-02 -1.63515994E-01  2.11702726E-13
 -3.75952866E-13  1.28814969E+00 -6.42451849E-01  5.18356416E-13 -9.65048775E-13
  6.57716870E-01  9.91613690E-02  4.05389077E-13 -4.00291513E-13 -3.55381520E-03
  4.73233527E-03 -1.69460896E-02  3.78552789E-14 -5.90795663E-14  2.16784156E-02
 -1.00313755E-01 -1.23774849E+00 -1.00313755E-01 -1.23774849E+00 -1.00313755E-01
 -1.23774849E+00 -1.00313755E-01 -1.23774849E+00  1.06244041E-12 -1.87138236E-12
 -1.73876901E-12 -1.12420918E-01  1.94721602E-01 -9.58121642E-12 -1.09805776E-11
 -3.64640862E-01  6.31579008E-01  4.02625221E-10 -1.13912936E-10 -2.26182102E-01
  3.91750655E-01  1.10268089E-13  1.00307967E-13  8.84004452E-14  2.05451127E-02
 -3.55854137E-02  5.09481505E-15 -1.30023738E-12  2.13740684E-12 -2.34855328E-12
 -1.12420918E-01  1.94721602E-01  1.45342040E-11 -1.34258788E-11 -3.64640862E-01
  6.31579008E-01 -4.00063153E-10 -1.14026707E-10 -2.26182102E-01  3.91750655E-01
 -1.15069069E-13 -8.06458286E-14 -1.66932955E-13 -2.05451127E-02  3.55854137E-02
  8.51256446E-14  1.38844945E-01  1.17409763E+00 -1.38844945E-01 -1.17409763E+00
  1.38844945E-01  1.17409763E+00 -1.38844945E-01 -1.17409763E+00 -7.67434048E-02
  9.79890730E-02  7.69700521E-02 -5.43490296E-13  1.05528872E-12  1.26022782E+00
  4.32511541E-01  7.63816283E-13 -1.31680727E-12  2.10445043E+01 -5.22219930E+00
  5.06081273E-13 -1.06468779E-12 -7.49785256E-03  2.97121338E-03 -1.08946063E-02
  1.98337169E-13 -3.36447051E-13  1.38658106E-02  7.67434048E-02 -9.79890730E-02
  7.69700520E-02 -1.19999764E-12  1.97714743E-12 -1.26022782E+00  4.32511541E-01
 -4.75422088E-12  8.22461561E-12 -2.10445043E+01 -5.22219930E+00 -3.11802437E-12
  5.59179050E-12  7.49785256E-03 -2.97121338E-03  1.08946063E-02 -1.60004651E-13
  2.82876718E-13 -1.38658106E-02 -1.22854867E-01 -1.40635611E+00 -1.22854867E-01
 -1.40635611E+00  1.22854867E-01  1.40635611E+00  1.22854867E-01  1.40635611E+00
 -2.36387070E-13  2.86142119E-13 -2.18346722E-13 -1.89481638E-01  3.28191456E-01
  5.72771670E-12 -2.71499704E-12 -9.14799439E-01  1.58447954E+00  9.05659015E-11
 -2.36143972E-11 -9.27111149E-01  1.60580672E+00 -8.17950995E-14  4.54547184E-14
 -3.12792748E-15 -7.06622613E-03  1.22390639E-02  4.20099428E-14  2.24976030E-13
 -3.44243810E-13 -3.25865679E-13  1.89481638E-01 -3.28191456E-01 -5.55231969E-12
 -2.68508716E-12  9.14799439E-01 -1.58447954E+00 -9.04981098E-11 -2.35828591E-11
  9.27111149E-01 -1.60580672E+00  8.25045981E-14 -3.29024028E-14  1.64698906E-14
 -7.06622613E-03  1.22390639E-02 -3.58062636E-14  2.83081454E-02  1.90510014E+00
 -2.83081454E-02 -1.90510014E+00 -2.83081454E-02 -1.90510014E+00  2.83081454E-02
  1.90510014E+00  1.02496722E-01 -9.31732698E-02  2.23622453E-01 -4.05347529E-13
  7.18167351E-13 -3.29250153E+00  2.69469336E+00 -1.23091101E-12  2.10284319E-12
  6.00932518E+00 -1.90883676E+00 -1.26312137E-12  2.20838921E-12  3.24876769E-02
 -4.28814716E-03 -1.70324783E-02  3.81479092E-14 -6.62400512E-14  1.27443375E-02
 -1.02496722E-01  9.31732698E-02  2.23622453E-01  3.55994083E-14 -7.77167069E-14
  3.29250153E+00  2.69469336E+00  8.62694678E-13 -1.46447358E-12 -6.00932518E+00
 -1.90883676E+00  9.47770073E-13 -1.66003468E-12 -3.24876769E-02  4.28814716E-03
  1.70324783E-02 -5.31051816E-14  9.13450214E-14 -1.27443375E-02 -2.65673473E-02
 -2.38375298E-01 -2.65673473E-02 -2.38375298E-01  2.65673473E-02  2.38375298E-01
  2.65673473E-02  2.38375298E-01  2.82426065E-02  5.69174199E-02 -6.08879239E-01
 -2.98240659E-14  9.14304136E-14  4.23431177E-01  1.23450507E+00  5.52512332E-14
 -1.39530328E-13 -1.05186708E-01 -7.58982458E-01 -3.07875426E-14  6.27373486E-14
  7.49371632E-02 -2.26446458E-02 -4.80954446E-02 -2.86868785E-15  1.90758997E-15
  2.54507734E-02  2.82426065E-02  5.69174199E-02  6.08879239E-01  2.37331532E-14
 -1.66002382E-14  4.23431177E-01 -1.23450507E+00 -3.26844766E-14  2.85829677E-14
 -1.05186708E-01  7.58982458E-01  2.74302743E-14 -2.87228601E-14  7.49371632E-02
 -2.26446458E-02 -4.80954446E-02  1.42016090E-15  1.28704821E-15  2.54507734E-02