B_90                                                                    
SP        RB3LYP                                                      6-31+G(d)           
Number of atoms                            I                6
Info1-9                                    I   N=           9
          15          15           0           0           0         110
           1          18        -502
Charge                                     I                0
Multiplicity                               I                1
Number of electrons                        I               16
Number of alpha electrons                  I                8
Number of beta electrons                   I                8
Number of basis functions                  I               46
Number of independent functions            I               46
Number of point charges in /Mol/           I                0
Number of translation vectors              I                0
Atomic numbers                             I   N=           6
           6           6           1           1           1           1
Nuclear charges                            R   N=           6
  6.00000000E+00  6.00000000E+00  1.00000000E+00  1.00000000E+00  1.00000000E+00
  1.00000000E+00
Current cartesian coordinates              R   N=          18
  1.27131137E+00  0.00000000E+00  9.44863066E+00 -1.27131137E+00  0.00000000E+00
  9.44863066E+00  2.34821716E+00  0.00000000E+00  7.68210334E+00  2.34821716E+00
  0.00000000E+00  1.12151580E+01 -2.34821716E+00  0.00000000E+00  7.68210334E+00
 -2.34821716E+00  0.00000000E+00  1.12151580E+01
Force Field                                I                0
Int Atom Types                             I   N=           6
           0           0           0           0           0           0
MM charges                                 R   N=           6
  0.00000000E+00  0.00000000E+00  0.00000000E+00  0.00000000E+00  0.00000000E+00
  0.00000000E+00
Integer atomic weights                     I   N=           6
          12          12           1           1           1           1
Real atomic weights                        R   N=           6
  1.20000000E+01  1.20000000E+01  1.00782504E+00  1.00782504E+00  1.00782504E+00
  1.00782504E+00
Atom fragment info                         I   N=           6
           0           0           0           0           0           0
Atom residue num                           I   N=           6
           0           0           0           0           0           0
Nuclear spins                              I   N=           6
           0           0           1           1           1           1
Nuclear ZEff                               R   N=           6
 -3.60000000E+00 -3.60000000E+00 -1.00000000E+00 -1.00000000E+00 -1.00000000E+00
 -1.00000000E+00
Nuclear ZNuc                               R   N=           6
  6.00000000E+00  6.00000000E+00  1.00000000E+00  1.00000000E+00  1.00000000E+00
  1.00000000E+00
Nuclear QMom                               R   N=           6
  0.00000000E+00  0.00000000E+00  0.00000000E+00  0.00000000E+00  0.00000000E+00
  0.00000000E+00
Nuclear GFac                               R   N=           6
  0.00000000E+00  0.00000000E+00  2.79284600E+00  2.79284600E+00  2.79284600E+00
  2.79284600E+00
MicOpt                                     I   N=           6
          -1          -1          -1          -1          -1          -1
Number of contracted shells                I               18
Number of primitive shells                 I               40
Pure/Cartesian d shells                    I                1
Pure/Cartesian f shells                    I                0
Highest angular momentum                   I                2
Largest degree of contraction              I                6
Shell types                                I   N=          18
           0          -1          -1          -1           2           0
          -1          -1          -1           2           0           0
           0           0           0           0           0           0
Number of primitives per shell             I   N=          18
           6           3           1           1           1           6
           3           1           1           1           3           1
           3           1           3           1           3           1
Shell to atom map                          I   N=          18
           1           1           1           1           1           2
           2           2           2           2           3           3
           4           4           5           5           6           6
Primitive exponents                        R   N=          40
  3.04752488E+03  4.57369518E+02  1.03948685E+02  2.92101553E+01  9.28666296E+00
  3.16392696E+00  7.86827235E+00  1.88128854E+00  5.44249258E-01  1.68714478E-01
  4.38000000E-02  8.00000000E-01  3.04752488E+03  4.57369518E+02  1.03948685E+02
  2.92101553E+01  9.28666296E+00  3.16392696E+00  7.86827235E+00  1.88128854E+00
  5.44249258E-01  1.68714478E-01  4.38000000E-02  8.00000000E-01  1.87311370E+01
  2.82539436E+00  6.40121692E-01  1.61277759E-01  1.87311370E+01  2.82539436E+00
  6.40121692E-01  1.61277759E-01  1.87311370E+01  2.82539436E+00  6.40121692E-01
  1.61277759E-01  1.87311370E+01  2.82539436E+00  6.40121692E-01  1.61277759E-01
Contraction coefficients                   R   N=          40
  1.83473713E-03  1.40373228E-02  6.88426223E-02  2.32184443E-01  4.67941348E-01
  3.62311985E-01 -1.19332420E-01 -1.60854152E-01  1.14345644E+00  1.00000000E+00
  1.00000000E+00  1.00000000E+00  1.83473713E-03  1.40373228E-02  6.88426223E-02
  2.32184443E-01  4.67941348E-01  3.62311985E-01 -1.19332420E-01 -1.60854152E-01
  1.14345644E+00  1.00000000E+00  1.00000000E+00  1.00000000E+00  3.34946043E-02
  2.34726953E-01  8.13757326E-01  1.00000000E+00  3.34946043E-02  2.34726953E-01
  8.13757326E-01  1.00000000E+00  3.34946043E-02  2.34726953E-01  8.13757326E-01
  1.00000000E+00  3.34946043E-02  2.34726953E-01  8.13757326E-01  1.00000000E+00
P(S=P) Contraction coefficients            R   N=          40
  0.00000000E+00  0.00000000E+00  0.00000000E+00  0.00000000E+00  0.00000000E+00
  0.00000000E+00  6.89990666E-02  3.16423961E-01  7.44308291E-01  1.00000000E+00
  1.00000000E+00  0.00000000E+00  0.00000000E+00  0.00000000E+00  0.00000000E+00
  0.00000000E+00  0.00000000E+00  0.00000000E+00  6.89990666E-02  3.16423961E-01
  7.44308291E-01  1.00000000E+00  1.00000000E+00  0.00000000E+00  0.00000000E+00
  0.00000000E+00  0.00000000E+00  0.00000000E+00  0.00000000E+00  0.00000000E+00
  0.00000000E+00  0.00000000E+00  0.00000000E+00  0.00000000E+00  0.00000000E+00
  0.00000000E+00  0.00000000E+00  0.00000000E+00  0.00000000E+00  0.00000000E+00
Coordinates of each shell                  R   N=          54
  1.27131137E+00  0.00000000E+00  9.44863066E+00  1.27131137E+00  0.00000000E+00
  9.44863066E+00  1.27131137E+00  0.00000000E+00  9.44863066E+00  1.27131137E+00
  0.00000000E+00  9.44863066E+00  1.27131137E+00  0.00000000E+00  9.44863066E+00
 -1.27131137E+00  0.00000000E+00  9.44863066E+00 -1.27131137E+00  0.00000000E+00
  9.44863066E+00 -1.27131137E+00  0.00000000E+00  9.44863066E+00 -1.27131137E+00
  0.00000000E+00  9.44863066E+00 -1.27131137E+00  0.00000000E+00  9.44863066E+00
  2.34821716E+00  0.00000000E+00  7.68210334E+00  2.34821716E+00  0.00000000E+00
  7.68210334E+00  2.34821716E+00  0.00000000E+00  1.12151580E+01  2.34821716E+00
  0.00000000E+00  1.12151580E+01 -2.34821716E+00  0.00000000E+00  7.68210334E+00
 -2.34821716E+00  0.00000000E+00  7.68210334E+00 -2.34821716E+00  0.00000000E+00
  1.12151580E+01 -2.34821716E+00  0.00000000E+00  1.12151580E+01
Constraint Structure                       R   N=          18
  1.27131137E+00  0.00000000E+00  9.44863066E+00 -1.27131137E+00  0.00000000E+00
  9.44863066E+00  2.34821716E+00  0.00000000E+00  7.68210334E+00  2.34821716E+00
  0.00000000E+00  1.12151580E+01 -2.34821716E+00  0.00000000E+00  7.68210334E+00
 -2.34821716E+00  0.00000000E+00  1.12151580E+01
Num ILSW                                   I              100
ILSW                                       I   N=         100
           0           1           0           0           2           0
           0           0           0           0         402          -1
           5           0           0           0           0           0
           0           0           1           0           0           0
           1           1           0           0           0           0
           0           0      100000           0          -1           0
           0           0           0           0           0           0
           0           0           0           1           0           0
           0           0           1           0           0           0
           0           0           4          41           0           0
           0           0           5           0           0           0
           0           0           0           0           0           0
           0           0           0           0           0           0
           0           0           0           0           0           0
           0           0           0           0           0           0
           0           0           0           0           0           0
           0           0           0           0
Num RLSW                                   I               41
RLSW                                       R   N=          41
  8.00000000E-01  7.20000000E-01  1.00000000E+00  8.10000000E-01  2.00000000E-01
  0.00000000E+00  0.00000000E+00  1.00000000E+00  0.00000000E+00  0.00000000E+00
  0.00000000E+00  0.00000000E+00  1.00000000E+00  0.00000000E+00  0.00000000E+00
  0.00000000E+00  0.00000000E+00  1.00000000E+00  0.00000000E+00  0.00000000E+00
  0.00000000E+00  0.00000000E+00  1.00000000E+00  0.00000000E+00  0.00000000E+00
  0.00000000E+00  0.00000000E+00  1.00000000E+00  0.00000000E+00  0.00000000E+00
  0.00000000E+00  0.00000000E+00  1.00000000E+00  0.00000000E+00  0.00000000E+00
  0.00000000E+00  0.00000000E+00  0.00000000E+00  1.00000000E+00  1.00000000E+00
  0.00000000E+00
MxBond                                     I                3
NBond                                      I   N=           6
           3           3           1           1           1           1
IBond                                      I   N=          18
           2           3           4           1           5           6
           1           0           0           1           0           0
           2           0           0           2           0           0
RBond                                      R   N=          18
  2.00000000E+00  1.00000000E+00  1.00000000E+00  2.00000000E+00  1.00000000E+00
  1.00000000E+00  1.00000000E+00  0.00000000E+00  0.00000000E+00  1.00000000E+00
  0.00000000E+00  0.00000000E+00  1.00000000E+00  0.00000000E+00  0.00000000E+00
  1.00000000E+00  0.00000000E+00  0.00000000E+00
Virial Ratio                               R      2.011877507626057E+00
SCF Energy                                 R     -7.859298496755535E+01
Total Energy                               R     -7.859298496755535E+01
RMS Density                                R      1.139181716564596E-09
External E-field                           R   N=          35
  0.00000000E+00  0.00000000E+00  0.00000000E+00  0.00000000E+00  0.00000000E+00
  0.00000000E+00  0.00000000E+00  0.00000000E+00  0.00000000E+00  0.00000000E+00
  0.00000000E+00  0.00000000E+00  0.00000000E+00  0.00000000E+00  0.00000000E+00
  0.00000000E+00  0.00000000E+00  0.00000000E+00  0.00000000E+00  0.00000000E+00
  0.00000000E+00  0.00000000E+00  0.00000000E+00  0.00000000E+00  0.00000000E+00
  0.00000000E+00  0.00000000E+00  0.00000000E+00  0.00000000E+00  0.00000000E+00
  0.00000000E+00  0.00000000E+00  0.00000000E+00  0.00000000E+00  0.00000000E+00
IOpCl                                      I                0
IROHF                                      I                0
Alpha Orbital Energies                     R   N=          46
 -1.01987068E+01 -1.01979005E+01 -7.62055366E-01 -5.84477985E-01 -4.72680313E-01
 -4.22673825E-01 -3.63216314E-01 -2.75956762E-01 -9.87616801E-03  2.50218917E-02
  3.25740911E-02  4.67130053E-02  6.95762628E-02  8.67334464E-02  8.74548224E-02
  1.27516016E-01  1.56680021E-01  1.76426083E-01  1.90396963E-01  2.43026451E-01
  3.42326277E-01  3.47549483E-01  5.79938592E-01  6.57848685E-01  6.74690871E-01
  7.19168516E-01  7.56765491E-01  8.19624531E-01  8.99524347E-01  9.36430663E-01
  9.63238913E-01  1.00218303E+00  1.16203660E+00  1.21969411E+00  1.44779520E+00
  1.53897371E+00  1.81652188E+00  1.88523532E+00  1.99937246E+00  2.10768528E+00
  2.29199614E+00  2.37010295E+00  2.66501850E+00  2.70045721E+00  4.11589522E+00
  4.25146495E+00
Alpha MO coefficients                      R   N=        2116
  7.01848323E-01  3.45111600E-02  1.76545267E-04 -1.58801556E-16 -1.39435534E-16
 -6.26439402E-03 -2.86418040E-04  4.15468913E-16  6.33033421E-16  6.06911105E-04
 -7.56114276E-04 -2.99684557E-16  1.11213482E-15 -6.66402990E-03 -6.89547035E-03
 -6.69016042E-03 -8.68941411E-17 -2.73544071E-18  6.04805252E-17  7.01848324E-01
  3.45111600E-02 -1.76545267E-04  3.81420674E-17 -2.22778478E-16 -6.26439404E-03
  2.86418037E-04 -1.54505297E-16  1.14127349E-15  6.06911130E-04  7.56114283E-04
  2.63554801E-16 -3.65581520E-16 -6.66402991E-03 -6.89547035E-03 -6.69016042E-03
 -4.61066666E-17  3.95889890E-17  2.79501982E-16 -2.01446992E-04  1.01249353E-03
 -2.01446992E-04  1.01249353E-03 -2.01446992E-04  1.01249353E-03 -2.01446992E-04
  1.01249353E-03  7.02152907E-01  3.51944812E-02 -3.26942327E-04  1.10874849E-16
  1.02871950E-15 -1.29491478E-02  2.34694707E-03 -3.15450500E-16 -1.06606628E-14
  1.93773315E-02 -5.22205133E-03  1.27601972E-16 -5.04438007E-15 -6.23742590E-03
 -6.75383966E-03 -6.50593309E-03 -1.05885180E-17  6.56976465E-16  8.12720312E-17
 -7.02152906E-01 -3.51944811E-02 -3.26942327E-04 -8.68322094E-17 -1.23837833E-15
  1.29491478E-02  2.34694707E-03  3.33084400E-17  1.10782854E-14 -1.93773315E-02
 -5.22205133E-03 -1.15596962E-16  5.30005905E-15  6.23742589E-03  6.75383965E-03
  6.50593308E-03  3.94194039E-17  7.41021325E-16 -1.03014569E-16 -1.03254479E-04
  1.16856299E-03 -1.03254479E-04  1.16856299E-03  1.03254479E-04 -1.16856299E-03
  1.03254479E-04 -1.16856299E-03 -1.59533647E-01  3.11273599E-01 -1.00793311E-01
 -1.87973231E-16 -2.21590793E-15  2.33854049E-01 -4.33518717E-03 -1.33991149E-16
 -1.22579874E-14  3.39840684E-03 -8.95399128E-04  1.14967848E-16 -4.16293078E-15
  8.12132107E-03 -1.65628272E-02  2.45681141E-04  1.21183312E-16 -5.66816288E-16
  1.02188457E-16 -1.59533647E-01  3.11273599E-01  1.00793311E-01  1.37447378E-17
 -3.01719490E-16  2.33854049E-01  4.33518717E-03  1.01951030E-16 -1.05989656E-15
  3.39840685E-03  8.95399131E-04 -1.17198785E-16  1.95293286E-15  8.12132107E-03
 -1.65628272E-02  2.45681141E-04  1.65538827E-16 -3.59533107E-16 -1.01857186E-16
  8.39624742E-02  1.50558443E-02  8.39624742E-02  1.50558443E-02  8.39624742E-02
  1.50558443E-02  8.39624742E-02  1.50558443E-02 -1.23823270E-01  2.49515662E-01
  1.70475221E-01 -4.43145034E-17 -3.84909457E-15  2.50193820E-01  6.25063105E-02
 -1.52220917E-16  1.38653396E-14 -3.47749020E-02  1.77114789E-02  9.88381281E-17
  1.53363784E-14 -8.42743493E-03 -1.15292250E-02  1.36364144E-02 -6.50411877E-17
 -9.41740945E-17  7.25002349E-18  1.23823270E-01 -2.49515662E-01  1.70475221E-01
  1.05680907E-16  7.18378540E-16 -2.50193820E-01  6.25063105E-02  1.01409297E-16
 -1.40952063E-14  3.47749020E-02  1.77114789E-02 -6.89535547E-17 -1.56911814E-14
  8.42743493E-03  1.15292250E-02 -1.36364144E-02 -7.67942922E-17 -2.29809054E-16
  1.86887201E-18  1.45666688E-01  5.86722589E-02  1.45666688E-01  5.86722589E-02
 -1.45666688E-01 -5.86722589E-02 -1.45666688E-01 -5.86722589E-02 -3.08170843E-15
 -5.92972719E-15  5.39445282E-15 -5.64858072E-16  3.31654469E-01  7.57440188E-14
 -3.58410500E-14 -1.72464018E-18  1.24742929E-01 -2.83233781E-12  7.68608087E-13
  1.09242003E-15  1.34861731E-02 -1.17989756E-16 -1.83295534E-15 -1.08220138E-15
 -1.85877106E-17  6.02884373E-03  1.00006332E-16  3.28060554E-15  1.33326871E-14
 -3.76361204E-15  2.16558504E-16  3.31654469E-01 -8.87279457E-14 -4.22823278E-14
  3.78529078E-16  1.24742929E-01  2.84108794E-12  7.77776611E-13 -8.05058771E-16
  1.34861731E-02  1.19248878E-15  4.01335907E-15  3.88643735E-15 -2.93502977E-17
 -6.02884373E-03  1.65767679E-16 -1.56715765E-01 -9.72044102E-02  1.56715765E-01
  9.72044102E-02 -1.56715765E-01 -9.72044102E-02  1.56715765E-01  9.72044102E-02
  1.30021061E-02 -3.19745534E-02  4.15147882E-01 -7.48291669E-17 -4.41997079E-15
  6.33097361E-03  1.39885236E-01 -3.71148727E-16 -6.74167768E-15  1.80451201E-02
  3.14855422E-02 -2.38734872E-16 -5.59090742E-15 -6.02859106E-03  8.41184390E-05
  1.89097371E-02 -1.23729511E-16 -1.96993558E-16  1.11077784E-16  1.30021061E-02
 -3.19745534E-02 -4.15147882E-01 -2.30839556E-16 -3.84478809E-15  6.33097361E-03
 -1.39885236E-01 -8.06191267E-17  1.58917842E-14  1.80451201E-02 -3.14855422E-02
  5.53168852E-16  9.35252764E-15 -6.02859106E-03  8.41184390E-05  1.89097371E-02
  9.83767097E-18 -6.05232095E-16 -1.80221223E-16  1.25814801E-01  9.72211365E-02
  1.25814801E-01  9.72211365E-02  1.25814801E-01  9.72211365E-02  1.25814801E-01
  9.72211365E-02  6.82836865E-16  6.68493697E-15  2.46681875E-15 -5.48122876E-16
  3.10324328E-01 -5.89437068E-14  5.46841267E-14 -3.84071781E-16  1.37753101E-01
  2.24533858E-12 -6.11192786E-13 -3.01218685E-17  4.34664641E-02  1.16373742E-15
  3.16387720E-15  4.61920002E-15  6.22350470E-17  3.00441666E-02 -1.65199813E-16
 -2.84904493E-15 -1.21509797E-14  1.31834379E-16 -4.86901621E-16 -3.10324328E-01
  9.99245075E-14  3.58449243E-14  1.49524017E-17 -1.37753101E-01 -2.23821772E-12
 -6.15154982E-13 -1.72182331E-16 -4.34664641E-02 -1.54662865E-15 -4.33279014E-15
 -4.01093243E-15 -2.42283007E-17  3.00441666E-02  1.51186873E-16 -1.97166367E-01
 -1.71813422E-01  1.97166367E-01  1.71813422E-01  1.97166367E-01  1.71813422E-01
 -1.97166367E-01 -1.71813422E-01 -9.09458652E-17  2.60148521E-16  4.39486311E-16
  4.01915878E-01  1.25988672E-16  8.51391997E-16 -1.17850782E-16  2.53948776E-01
 -4.85061635E-15  2.04562788E-14 -5.56133302E-15  5.47522707E-02 -2.12975511E-15
 -2.53192602E-17  6.91233307E-17 -1.51211701E-16 -1.64380696E-02  4.95488891E-17
 -2.57930009E-16 -8.94454804E-17  6.75917767E-16 -5.73009489E-16  4.01915878E-01
  4.91882278E-16 -7.94040016E-16 -1.14952079E-16  2.53948776E-01  3.31731910E-15
 -1.96162956E-14 -5.10139106E-15  5.47522707E-02  2.47788324E-15 -8.14467668E-17
 -2.56000582E-17 -3.98639951E-18  1.64380696E-02 -6.05885062E-17 -2.35919721E-16
 -7.42390263E-16 -4.72325759E-15  2.99722073E-17  3.29627108E-15 -3.80363225E-16
  4.03328390E-15 -3.77705516E-16 -3.43885287E-15 -2.10866056E-16  3.36817103E-16
  5.22648498E-16  3.75793840E-01 -2.12448553E-16  1.52358356E-15  7.60078816E-16
  4.45682857E-01 -1.02186661E-15 -3.85968702E-14  8.85422038E-15  7.47018690E-01
 -1.64188517E-15  2.24551230E-17 -1.11526830E-16 -1.83898712E-19  2.42529708E-02
  4.75143324E-17 -3.10463698E-16 -2.85703443E-16  4.30314848E-16 -4.60891002E-16
 -3.75793840E-01 -3.99950949E-16  3.21732909E-15 -2.54750827E-16 -4.45682857E-01
 -7.38793930E-16  3.03696693E-14  1.05538117E-14 -7.47018690E-01  1.80321329E-15
 -1.74405598E-17 -5.55901290E-17 -2.19906503E-17  2.42529708E-02 -2.56665527E-17
  2.10216133E-16 -4.71156049E-17 -3.33661498E-16  1.87147821E-16  2.44295366E-15
 -1.12081844E-16 -9.01495579E-16  8.91637025E-17  6.98850726E-16  5.10818065E-02
 -8.50847735E-02 -1.20581809E-01  2.06299862E-15  2.74976846E-14 -5.16202249E-01
 -1.55349290E-01  2.47142991E-15  5.39605160E-14  8.21976696E-01  4.27311517E-01
 -2.97923713E-16 -4.72489012E-14  1.05020561E-04  1.43980585E-02 -8.54881188E-04
  1.82037337E-16 -5.35541987E-16 -2.36016826E-16  5.10818065E-02 -8.50847735E-02
  1.20581809E-01 -1.54654116E-15  2.70357324E-14 -5.16202249E-01  1.55349290E-01
 -1.42558135E-15  4.69678096E-14  8.21976696E-01 -4.27311517E-01 -2.05241228E-15
 -3.79295587E-14  1.05020561E-04  1.43980585E-02 -8.54881189E-04  2.08796369E-16
  5.69633285E-16  2.92209486E-16 -4.18313803E-03 -1.10501264E-02 -4.18313803E-03
 -1.10501264E-02 -4.18313803E-03 -1.10501264E-02 -4.18313803E-03 -1.10501264E-02
 -5.11817931E-02  1.09793608E-01  5.00244748E-02 -7.92246402E-16  1.28844872E-13
  3.83956197E-01  6.86211329E-02 -1.14202884E-15  2.80450264E-13  9.62669507E+00
 -3.29112376E+00  2.67142727E-16 -1.28435712E-13 -1.15312360E-02 -3.01975881E-03
  9.27535300E-03 -7.55593779E-17 -5.20513141E-15 -2.21870538E-16  5.11817931E-02
 -1.09793608E-01  5.00244748E-02  1.24586424E-15  1.23738741E-13 -3.83956197E-01
  6.86211329E-02  1.50626405E-15  8.67196288E-13 -9.62669507E+00 -3.29112376E+00
 -1.48342179E-15  3.15824014E-13  1.15312360E-02  3.01975881E-03 -9.27535300E-03
 -2.59021569E-17  3.90882804E-15  3.24706294E-16 -2.42147889E-03 -8.14680529E-02
 -2.42147889E-03 -8.14680529E-02  2.42147889E-03  8.14680529E-02  2.42147889E-03
  8.14680529E-02 -2.12035719E-14  2.40312282E-14  1.12252021E-14 -7.64560603E-16
 -1.84068743E-01  2.46345164E-13  2.95172551E-14  2.94128860E-16 -2.70193907E-01
 -3.36217024E-12  8.39428530E-13 -2.37813916E-15  5.72292967E-01 -6.58797647E-15
 -4.74231694E-15 -9.29565311E-16 -5.60025614E-17  3.28736082E-03  3.42045616E-17
  2.69219032E-14 -4.32622314E-14  3.44679452E-14  6.19312285E-16 -1.84068743E-01
 -2.57255321E-13  3.80651879E-14  1.68358376E-15 -2.70193907E-01  3.55054782E-12
  6.31218097E-13 -7.95262318E-16  5.72292967E-01  3.96207856E-15  3.86509540E-15
 -3.19567181E-15  1.62483541E-17 -3.28736082E-03  7.16839659E-17 -1.26782228E-02
 -7.22436074E-02  1.26782228E-02  7.22436074E-02 -1.26782228E-02 -7.22436074E-02
  1.26782228E-02  7.22436074E-02  5.58877825E-17 -6.85585621E-17  3.29159357E-16
 -1.58222142E-01 -6.90809357E-16 -1.60247091E-15 -6.94854413E-16 -2.36514500E-01
 -1.18311358E-15 -1.36511144E-13  2.75086742E-14  6.02947480E-01  1.80819338E-15
 -1.24948459E-16  8.07598856E-17  1.17182325E-16  1.12649236E-02  1.06428602E-16
  1.55548178E-16  6.56507856E-16 -7.77070611E-16  2.49766255E-16 -1.58222142E-01
 -1.22294886E-15 -8.40548483E-15  1.18077938E-15 -2.36514500E-01 -3.49003797E-15
  1.39489390E-13  4.39239552E-14  6.02947480E-01  4.86220226E-17 -2.25734944E-17
  2.33961256E-16  1.02566383E-16 -1.12649236E-02 -7.95964311E-17  1.36986985E-16
 -2.78632128E-16  6.35021912E-16  2.52325550E-16  3.43553988E-15 -8.01043881E-17
 -3.59239557E-15  5.39372024E-16  3.89441078E-15 -3.64092638E-02  4.13681027E-02
 -4.39832196E-02 -1.50521914E-15  8.21833457E-14  5.33550428E-01  4.94035789E-02
 -1.96837869E-15  6.28683249E-14 -7.15970037E-03  1.45221444E+00  2.58175520E-15
 -1.21819310E-12  1.10799391E-02 -1.66653040E-02 -2.04711879E-02  5.55950393E-18
  5.56260551E-15  3.66545253E-17 -3.64092638E-02  4.13681027E-02  4.39832196E-02
 -1.18056756E-15 -7.79147567E-14  5.33550428E-01 -4.94035789E-02 -7.34538521E-16
 -1.66780819E-14 -7.15970055E-03 -1.45221444E+00  5.10738128E-15  1.17508039E-12
  1.10799391E-02 -1.66653040E-02 -2.04711879E-02 -1.55270369E-16  5.72699693E-15
 -1.20246147E-16 -2.08728617E-02 -9.04049757E-02 -2.08728617E-02 -9.04049757E-02
 -2.08728617E-02 -9.04049757E-02 -2.08728617E-02 -9.04049757E-02 -1.53197010E-14
  2.85199504E-14 -3.37122286E-14 -1.91456650E-15 -1.53999093E-01  1.70542758E-13
 -1.50552027E-13  2.00499360E-16 -9.22898330E-02 -4.49035782E-12  1.94380577E-12
  7.94362034E-15  2.24087409E+00  6.97273710E-15 -1.14480168E-14 -1.06609942E-14
  1.29946928E-16 -1.12609554E-02  1.13312691E-16 -1.06186503E-14  2.14641941E-14
  3.65143170E-14 -4.52170609E-16  1.53999093E-01  6.90940452E-14 -3.62022925E-14
  2.11104416E-15  9.22898330E-02  4.34109411E-12  3.66685886E-13 -7.90230537E-15
 -2.24087409E+00  6.55003587E-15 -5.91839087E-15 -7.05644959E-15 -1.10409463E-16
 -1.12609554E-02  9.99935750E-17  1.74960711E-02  1.71448778E-01 -1.74960711E-02
 -1.71448778E-01 -1.74960711E-02 -1.71448778E-01  1.74960711E-02  1.71448778E-01
  1.98323360E-15 -2.57923125E-15 -2.61162163E-15 -2.65941509E-01  1.22654619E-15
 -1.96360321E-14 -6.78145339E-15 -4.80232782E-01  2.51935394E-15  1.52057015E-12
 -4.10601205E-13  1.98897540E+00 -6.06513815E-15  3.13144182E-16  6.77658536E-16
  1.48068675E-16 -9.11034695E-03 -1.93351266E-16  7.42893191E-17 -2.26845804E-15
  2.25054519E-15 -3.36901602E-15  2.65941509E-01  8.39431869E-16  2.79461644E-14
 -1.12202982E-14  4.80232782E-01  3.38491004E-15 -1.51418780E-12 -4.09809056E-13
 -1.98897540E+00  8.49309006E-15 -3.22339441E-16 -5.02601197E-16 -3.54028641E-16
 -9.11034695E-03  1.71695165E-16 -1.09977821E-16  1.53978208E-15 -5.63471790E-15
  4.95131420E-16 -1.15832694E-14 -1.04193340E-15  5.31497211E-15 -2.50712581E-15
 -5.84521372E-15  5.59953600E-02 -8.19109072E-02 -8.92169226E-02  9.68719677E-15
  1.74195849E-12 -5.69142680E-01 -4.25152329E-01  1.72672892E-14  5.72293471E-12
  3.44830967E+01 -9.45801699E+00 -9.93830977E-14  3.64517262E-12  7.19654248E-03
  1.02358059E-02  5.32581604E-03  5.84459550E-16 -2.95384302E-13 -2.72633150E-16
 -5.59953600E-02  8.19109072E-02 -8.92169226E-02 -9.77306935E-15  1.81982816E-12
  5.69142680E-01 -4.25152329E-01 -2.39351368E-14  8.25873210E-12 -3.44830967E+01
 -9.45801699E+00  1.10781998E-13  4.92968037E-12 -7.19654248E-03 -1.02358059E-02
 -5.32581604E-03  1.20504642E-16  2.85794067E-13  4.87459212E-16  4.78139630E-02
  1.50590731E-01  4.78139630E-02  1.50590731E-01 -4.78139630E-02 -1.50590731E-01
 -4.78139630E-02 -1.50590731E-01 -5.98892297E-02  4.56209488E-02  1.63516618E-01
  2.03991435E-15 -3.33838530E-13  1.28813522E+00  6.42448413E-01  1.84860246E-15
 -1.75776043E-12  6.57723800E-01 -9.91893856E-02 -8.88744388E-15 -9.07195195E-13
 -3.55431364E-03  1.55721531E-02 -2.77851054E-02 -2.64156532E-17  4.36743777E-14
 -8.95858807E-17 -5.98892297E-02  4.56209488E-02 -1.63516618E-01 -1.88993355E-15
 -2.10343030E-13  1.28813522E+00 -6.42448413E-01 -1.72394037E-15 -1.91195110E-13
  6.57723800E-01  9.91893854E-02  8.69686983E-15 -2.87852351E-13 -3.55431364E-03
  1.55721531E-02 -2.77851054E-02  2.26073294E-16 -5.09819206E-14 -3.42941010E-16
 -1.00314125E-01 -1.23774597E+00 -1.00314125E-01 -1.23774597E+00 -1.00314125E-01
 -1.23774597E+00 -1.00314125E-01 -1.23774597E+00 -7.33512675E-13  1.21892173E-12
  1.35661266E-12  2.05494147E-15  2.24843944E-01  8.22099318E-12  7.39746376E-12
  2.91163309E-15  7.29283115E-01 -2.44314544E-10  6.90680051E-11 -6.09706640E-15
  4.52358452E-01 -5.77677771E-14 -1.69398259E-14 -1.16387736E-13  5.75881051E-17
 -4.10904760E-02 -3.26173646E-16  5.75733787E-13 -1.04132006E-12  9.12484186E-13
 -1.90170298E-15  2.24843944E-01 -4.97999951E-12  5.75075552E-12 -4.22922211E-15
  7.29283115E-01  2.45973936E-10  6.93740849E-11  8.28927086E-15  4.52358452E-01
  7.05564853E-14  6.99555387E-14  4.96375604E-14  2.09086978E-16  4.10904760E-02
 -1.53662765E-16  1.38845112E-01  1.17409713E+00 -1.38845112E-01 -1.17409713E+00
  1.38845112E-01  1.17409713E+00 -1.38845112E-01 -1.17409713E+00 -7.67439178E-02
  9.79895948E-02  7.69706128E-02  2.06400160E-15 -9.95062506E-13  1.26023713E+00
  4.32511707E-01  1.81500693E-15 -3.82845527E-12  2.10442673E+01 -5.22213409E+00
 -2.77865547E-14 -2.52734584E-12 -7.49786504E-03  9.90395363E-03 -1.78274872E-02
  2.93111243E-16  1.67016965E-13 -3.09974476E-16  7.67439178E-02 -9.79895948E-02
  7.69706128E-02 -5.25823692E-16 -6.56971946E-13 -1.26023713E+00  4.32511707E-01
 -6.19624197E-15 -1.87301007E-13 -2.10442673E+01 -5.22213409E+00  3.34058821E-14
 -8.39326923E-14  7.49786504E-03 -9.90395363E-03  1.78274872E-02 -1.84193724E-16
 -1.84859179E-13  5.49817350E-16 -1.22854881E-01 -1.40635798E+00 -1.22854881E-01
 -1.40635798E+00  1.22854881E-01  1.40635798E+00  1.22854881E-01  1.40635798E+00
 -1.49351340E-12  1.34596201E-12 -2.88649598E-12 -3.90952689E-16  3.78962614E-01
  4.72563370E-11 -3.77207830E-11  1.15306995E-15  1.82960156E+00 -5.77617715E-11
  1.98872331E-11 -8.37752425E-17  1.85422421E+00 -4.44532079E-13 -2.88573033E-14
  2.55583340E-13 -4.45090121E-16  1.41324655E-02  3.23277591E-16  1.45097100E-12
 -1.19515069E-12 -3.15272471E-12  7.49497344E-16 -3.78962614E-01 -4.69060766E-11
 -3.77280365E-11 -8.02396104E-16 -1.82960156E+00  5.81089566E-11  1.97920517E-11
 -5.91816410E-16 -1.85422421E+00  4.34697296E-13  5.98602488E-14 -2.88015674E-13
 -4.64551796E-16  1.41324655E-02 -5.92452669E-17  2.83080491E-02  1.90510166E+00
 -2.83080491E-02 -1.90510166E+00 -2.83080491E-02 -1.90510166E+00  2.83080491E-02
  1.90510166E+00  1.02496662E-01 -9.31730686E-02  2.23622160E-01  2.17093772E-15
  5.23472461E-12 -3.29250124E+00  2.69469460E+00 -2.36305303E-16  2.47270288E-11
  6.00936558E+00 -1.90884714E+00 -6.21811513E-15  2.55758656E-11  3.24876137E-02
  2.08409389E-03 -2.34046574E-02  1.54091842E-16  2.42959317E-13 -5.10844596E-16
 -1.02496662E-01  9.31730686E-02  2.23622160E-01 -9.46658981E-16 -5.57057294E-12
  3.29250124E+00  2.69469460E+00 -2.42157159E-15 -2.51045003E-11 -6.00936558E+00
 -1.90884714E+00  8.90181504E-15 -2.58953183E-11 -3.24876137E-02 -2.08409389E-03
  2.34046574E-02  2.80150513E-17  1.56904549E-13  4.45391721E-16 -2.65675487E-02
 -2.38376981E-01 -2.65675487E-02 -2.38376981E-01  2.65675487E-02  2.38376981E-01
  2.65675487E-02  2.38376981E-01  2.82425400E-02  5.69163635E-02 -6.08879028E-01
  3.48995315E-15  1.41343389E-13  4.23433320E-01  1.23450563E+00 -7.07975609E-15
 -1.54620801E-13 -1.05186363E-01 -7.58983311E-01  3.35864469E-15  1.46934188E-13
  7.49370022E-02 -9.91913228E-03 -6.08210329E-02 -5.10689202E-17  1.02662256E-15
 -4.79452384E-16  2.82425400E-02  5.69163635E-02  6.08879028E-01 -3.93905705E-15
 -9.38762665E-14  4.23433320E-01 -1.23450563E+00  6.44378140E-15  8.03420690E-14
 -1.05186363E-01  7.58983311E-01 -3.05498382E-15 -1.38978248E-13  7.49370022E-02
 -9.91913228E-03 -6.08210329E-02  5.61648605E-16  4.79281805E-15 -8.99003843E-17