A                                                                       
SP        RB3LYP                                                      6-31+G(d)           
Number of atoms                            I                6
Info1-9                                    I   N=           9
          15          15           0           0           0         110
           1          18        -502
Charge                                     I                0
Multiplicity                               I                1
Number of electrons                        I               16
Number of alpha electrons                  I                8
Number of beta electrons                   I                8
Number of basis functions                  I               46
Number of independent functions            I               46
Number of point charges in /Mol/           I                0
Number of translation vectors              I                0
Atomic numbers                             I   N=           6
           6           6           1           1           1           1
Nuclear charges                            R   N=           6
  6.00000000E+00  6.00000000E+00  1.00000000E+00  1.00000000E+00  1.00000000E+00
  1.00000000E+00
Current cartesian coordinates              R   N=          18
  1.27131137E+00  0.00000000E+00  0.00000000E+00 -1.27131137E+00  0.00000000E+00
  0.00000000E+00  2.34821716E+00  1.76652733E+00  0.00000000E+00  2.34821716E+00
 -1.76652733E+00  0.00000000E+00 -2.34821716E+00  1.76652733E+00  0.00000000E+00
 -2.34821716E+00 -1.76652733E+00  0.00000000E+00
Force Field                                I                0
Int Atom Types                             I   N=           6
           0           0           0           0           0           0
MM charges                                 R   N=           6
  0.00000000E+00  0.00000000E+00  0.00000000E+00  0.00000000E+00  0.00000000E+00
  0.00000000E+00
Integer atomic weights                     I   N=           6
          12          12           1           1           1           1
Real atomic weights                        R   N=           6
  1.20000000E+01  1.20000000E+01  1.00782504E+00  1.00782504E+00  1.00782504E+00
  1.00782504E+00
Atom fragment info                         I   N=           6
           0           0           0           0           0           0
Atom residue num                           I   N=           6
           0           0           0           0           0           0
Nuclear spins                              I   N=           6
           0           0           1           1           1           1
Nuclear ZEff                               R   N=           6
 -3.60000000E+00 -3.60000000E+00 -1.00000000E+00 -1.00000000E+00 -1.00000000E+00
 -1.00000000E+00
Nuclear ZNuc                               R   N=           6
  6.00000000E+00  6.00000000E+00  1.00000000E+00  1.00000000E+00  1.00000000E+00
  1.00000000E+00
Nuclear QMom                               R   N=           6
  0.00000000E+00  0.00000000E+00  0.00000000E+00  0.00000000E+00  0.00000000E+00
  0.00000000E+00
Nuclear GFac                               R   N=           6
  0.00000000E+00  0.00000000E+00  2.79284600E+00  2.79284600E+00  2.79284600E+00
  2.79284600E+00
MicOpt                                     I   N=           6
          -1          -1          -1          -1          -1          -1
Number of contracted shells                I               18
Number of primitive shells                 I               40
Pure/Cartesian d shells                    I                1
Pure/Cartesian f shells                    I                0
Highest angular momentum                   I                2
Largest degree of contraction              I                6
Shell types                                I   N=          18
           0          -1          -1          -1           2           0
          -1          -1          -1           2           0           0
           0           0           0           0           0           0
Number of primitives per shell             I   N=          18
           6           3           1           1           1           6
           3           1           1           1           3           1
           3           1           3           1           3           1
Shell to atom map                          I   N=          18
           1           1           1           1           1           2
           2           2           2           2           3           3
           4           4           5           5           6           6
Primitive exponents                        R   N=          40
  3.04752488E+03  4.57369518E+02  1.03948685E+02  2.92101553E+01  9.28666296E+00
  3.16392696E+00  7.86827235E+00  1.88128854E+00  5.44249258E-01  1.68714478E-01
  4.38000000E-02  8.00000000E-01  3.04752488E+03  4.57369518E+02  1.03948685E+02
  2.92101553E+01  9.28666296E+00  3.16392696E+00  7.86827235E+00  1.88128854E+00
  5.44249258E-01  1.68714478E-01  4.38000000E-02  8.00000000E-01  1.87311370E+01
  2.82539436E+00  6.40121692E-01  1.61277759E-01  1.87311370E+01  2.82539436E+00
  6.40121692E-01  1.61277759E-01  1.87311370E+01  2.82539436E+00  6.40121692E-01
  1.61277759E-01  1.87311370E+01  2.82539436E+00  6.40121692E-01  1.61277759E-01
Contraction coefficients                   R   N=          40
  1.83473713E-03  1.40373228E-02  6.88426223E-02  2.32184443E-01  4.67941348E-01
  3.62311985E-01 -1.19332420E-01 -1.60854152E-01  1.14345644E+00  1.00000000E+00
  1.00000000E+00  1.00000000E+00  1.83473713E-03  1.40373228E-02  6.88426223E-02
  2.32184443E-01  4.67941348E-01  3.62311985E-01 -1.19332420E-01 -1.60854152E-01
  1.14345644E+00  1.00000000E+00  1.00000000E+00  1.00000000E+00  3.34946043E-02
  2.34726953E-01  8.13757326E-01  1.00000000E+00  3.34946043E-02  2.34726953E-01
  8.13757326E-01  1.00000000E+00  3.34946043E-02  2.34726953E-01  8.13757326E-01
  1.00000000E+00  3.34946043E-02  2.34726953E-01  8.13757326E-01  1.00000000E+00
P(S=P) Contraction coefficients            R   N=          40
  0.00000000E+00  0.00000000E+00  0.00000000E+00  0.00000000E+00  0.00000000E+00
  0.00000000E+00  6.89990666E-02  3.16423961E-01  7.44308291E-01  1.00000000E+00
  1.00000000E+00  0.00000000E+00  0.00000000E+00  0.00000000E+00  0.00000000E+00
  0.00000000E+00  0.00000000E+00  0.00000000E+00  6.89990666E-02  3.16423961E-01
  7.44308291E-01  1.00000000E+00  1.00000000E+00  0.00000000E+00  0.00000000E+00
  0.00000000E+00  0.00000000E+00  0.00000000E+00  0.00000000E+00  0.00000000E+00
  0.00000000E+00  0.00000000E+00  0.00000000E+00  0.00000000E+00  0.00000000E+00
  0.00000000E+00  0.00000000E+00  0.00000000E+00  0.00000000E+00  0.00000000E+00
Coordinates of each shell                  R   N=          54
  1.27131137E+00  0.00000000E+00  0.00000000E+00  1.27131137E+00  0.00000000E+00
  0.00000000E+00  1.27131137E+00  0.00000000E+00  0.00000000E+00  1.27131137E+00
  0.00000000E+00  0.00000000E+00  1.27131137E+00  0.00000000E+00  0.00000000E+00
 -1.27131137E+00  0.00000000E+00  0.00000000E+00 -1.27131137E+00  0.00000000E+00
  0.00000000E+00 -1.27131137E+00  0.00000000E+00  0.00000000E+00 -1.27131137E+00
  0.00000000E+00  0.00000000E+00 -1.27131137E+00  0.00000000E+00  0.00000000E+00
  2.34821716E+00  1.76652733E+00  0.00000000E+00  2.34821716E+00  1.76652733E+00
  0.00000000E+00  2.34821716E+00 -1.76652733E+00  0.00000000E+00  2.34821716E+00
 -1.76652733E+00  0.00000000E+00 -2.34821716E+00  1.76652733E+00  0.00000000E+00
 -2.34821716E+00  1.76652733E+00  0.00000000E+00 -2.34821716E+00 -1.76652733E+00
  0.00000000E+00 -2.34821716E+00 -1.76652733E+00  0.00000000E+00
Constraint Structure                       R   N=          18
  1.27131137E+00  0.00000000E+00  0.00000000E+00 -1.27131137E+00  0.00000000E+00
  0.00000000E+00  2.34821716E+00  1.76652733E+00  0.00000000E+00  2.34821716E+00
 -1.76652733E+00  0.00000000E+00 -2.34821716E+00  1.76652733E+00  0.00000000E+00
 -2.34821716E+00 -1.76652733E+00  0.00000000E+00
Num ILSW                                   I              100
ILSW                                       I   N=         100
           0           1           0           0           2           0
           0           0           0           0         402          -1
           5           0           0           0           0           0
           0           0           1           0           0           0
           1           1           0           0           0           0
           0           0      100000           0          -1           0
           0           0           0           0           0           0
           0           0           0           1           0           0
           0           0           1           0           0           0
           0           0           4          41           0           0
           0           0           5           0           0           0
           0           0           0           0           0           0
           0           0           0           0           0           0
           0           0           0           0           0           0
           0           0           0           0           0           0
           0           0           0           0           0           0
           0           0           0           0
Num RLSW                                   I               41
RLSW                                       R   N=          41
  8.00000000E-01  7.20000000E-01  1.00000000E+00  8.10000000E-01  2.00000000E-01
  0.00000000E+00  0.00000000E+00  1.00000000E+00  0.00000000E+00  0.00000000E+00
  0.00000000E+00  0.00000000E+00  1.00000000E+00  0.00000000E+00  0.00000000E+00
  0.00000000E+00  0.00000000E+00  1.00000000E+00  0.00000000E+00  0.00000000E+00
  0.00000000E+00  0.00000000E+00  1.00000000E+00  0.00000000E+00  0.00000000E+00
  0.00000000E+00  0.00000000E+00  1.00000000E+00  0.00000000E+00  0.00000000E+00
  0.00000000E+00  0.00000000E+00  1.00000000E+00  0.00000000E+00  0.00000000E+00
  0.00000000E+00  0.00000000E+00  0.00000000E+00  1.00000000E+00  1.00000000E+00
  0.00000000E+00
MxBond                                     I                3
NBond                                      I   N=           6
           3           3           1           1           1           1
IBond                                      I   N=          18
           2           3           4           1           5           6
           1           0           0           1           0           0
           2           0           0           2           0           0
RBond                                      R   N=          18
  2.00000000E+00  1.00000000E+00  1.00000000E+00  2.00000000E+00  1.00000000E+00
  1.00000000E+00  1.00000000E+00  0.00000000E+00  0.00000000E+00  1.00000000E+00
  0.00000000E+00  0.00000000E+00  1.00000000E+00  0.00000000E+00  0.00000000E+00
  1.00000000E+00  0.00000000E+00  0.00000000E+00
Virial Ratio                               R      2.011877507626055E+00
SCF Energy                                 R     -7.859298496755497E+01
Total Energy                               R     -7.859298496755497E+01
RMS Density                                R      1.139166526680548E-09
External E-field                           R   N=          35
  0.00000000E+00  0.00000000E+00  0.00000000E+00  0.00000000E+00  0.00000000E+00
  0.00000000E+00  0.00000000E+00  0.00000000E+00  0.00000000E+00  0.00000000E+00
  0.00000000E+00  0.00000000E+00  0.00000000E+00  0.00000000E+00  0.00000000E+00
  0.00000000E+00  0.00000000E+00  0.00000000E+00  0.00000000E+00  0.00000000E+00
  0.00000000E+00  0.00000000E+00  0.00000000E+00  0.00000000E+00  0.00000000E+00
  0.00000000E+00  0.00000000E+00  0.00000000E+00  0.00000000E+00  0.00000000E+00
  0.00000000E+00  0.00000000E+00  0.00000000E+00  0.00000000E+00  0.00000000E+00
IOpCl                                      I                0
IROHF                                      I                0
Alpha Orbital Energies                     R   N=          46
 -1.01987068E+01 -1.01979005E+01 -7.62055366E-01 -5.84477985E-01 -4.72680313E-01
 -4.22673825E-01 -3.63216314E-01 -2.75956762E-01 -9.87616801E-03  2.50218917E-02
  3.25740911E-02  4.67130053E-02  6.95762628E-02  8.67334464E-02  8.74548224E-02
  1.27516016E-01  1.56680021E-01  1.76426083E-01  1.90396963E-01  2.43026451E-01
  3.42326277E-01  3.47549483E-01  5.79938592E-01  6.57848685E-01  6.74690871E-01
  7.19168516E-01  7.56765491E-01  8.19624531E-01  8.99524347E-01  9.36430663E-01
  9.63238913E-01  1.00218303E+00  1.16203660E+00  1.21969411E+00  1.44779520E+00
  1.53897371E+00  1.81652188E+00  1.88523532E+00  1.99937246E+00  2.10768528E+00
  2.29199614E+00  2.37010295E+00  2.66501850E+00  2.70045721E+00  4.11589522E+00
  4.25146495E+00
Alpha MO coefficients                      R   N=        2116
  7.01848325E-01  3.45111600E-02  1.76545267E-04 -1.03041551E-16  1.76780755E-17
 -6.26439404E-03 -2.86418036E-04 -3.46076267E-16  1.02197103E-16  6.06911139E-04
 -7.56114285E-04  1.34549815E-15 -3.62786056E-16 -6.66402991E-03 -6.69016043E-03
 -6.89547036E-03  1.97774890E-16  4.26146398E-16 -1.69671492E-16  7.01848323E-01
  3.45111599E-02 -1.76545268E-04  3.85229953E-17  6.26243140E-17 -6.26439401E-03
  2.86418041E-04  6.16131103E-16 -6.56943441E-17  6.06911096E-04  7.56114274E-04
 -1.29467110E-15  2.04260837E-16 -6.66402989E-03 -6.69016041E-03 -6.89547034E-03
  1.15870939E-16 -9.20748230E-17 -2.63842763E-16 -2.01446992E-04  1.01249353E-03
 -2.01446992E-04  1.01249353E-03 -2.01446992E-04  1.01249353E-03 -2.01446992E-04
  1.01249353E-03  7.02152906E-01  3.51944811E-02 -3.26942327E-04  2.01968732E-16
  1.34742755E-16 -1.29491478E-02  2.34694708E-03  6.13658323E-16 -7.10317598E-17
  1.93773315E-02 -5.22205132E-03  2.89557659E-16  8.55799485E-16 -6.23742589E-03
 -6.50593308E-03 -6.75383965E-03 -4.47264688E-16 -1.37344458E-16 -3.56007678E-17
 -7.02152908E-01 -3.51944812E-02 -3.26942327E-04  8.84260518E-17  2.17854078E-17
  1.29491478E-02  2.34694707E-03 -6.83747566E-16  3.91054272E-16 -1.93773315E-02
 -5.22205133E-03 -1.12375210E-16 -4.59924615E-16  6.23742590E-03  6.50593309E-03
  6.75383967E-03 -1.99508972E-16  7.69891247E-18  1.93417451E-17 -1.03254479E-04
  1.16856298E-03 -1.03254479E-04  1.16856298E-03  1.03254479E-04 -1.16856299E-03
  1.03254479E-04 -1.16856299E-03 -1.59533647E-01  3.11273599E-01 -1.00793311E-01
  1.56404185E-15 -1.52899922E-17  2.33854049E-01 -4.33518717E-03  6.16767565E-16
 -2.08710221E-17  3.39840685E-03 -8.95399131E-04  1.24833165E-15 -2.05821723E-16
  8.12132107E-03  2.45681141E-04 -1.65628272E-02 -4.63517024E-16 -2.73071515E-16
  1.00052537E-16 -1.59533647E-01  3.11273599E-01  1.00793311E-01  1.18388735E-15
 -2.47071070E-16  2.33854049E-01  4.33518717E-03 -5.63531064E-15 -3.03833264E-16
  3.39840685E-03  8.95399129E-04 -3.70123813E-15  1.54566249E-16  8.12132107E-03
  2.45681141E-04 -1.65628272E-02 -3.00175970E-16 -4.80175495E-17  6.15438539E-17
  8.39624742E-02  1.50558443E-02  8.39624742E-02  1.50558443E-02  8.39624742E-02
  1.50558443E-02  8.39624742E-02  1.50558443E-02 -1.23823270E-01  2.49515662E-01
  1.70475221E-01  3.51604894E-15 -1.16972319E-16  2.50193820E-01  6.25063105E-02
  3.00102428E-15 -4.69798696E-17 -3.47749020E-02  1.77114789E-02  4.95391109E-15
 -2.25831821E-16 -8.42743493E-03  1.36364144E-02 -1.15292250E-02 -3.09381948E-16
  8.82283573E-17  2.76526500E-17  1.23823270E-01 -2.49515662E-01  1.70475221E-01
  3.13923674E-17  5.85223822E-17 -2.50193820E-01  6.25063105E-02  3.25091659E-16
 -1.60296961E-16  3.47749020E-02  1.77114789E-02 -2.68300216E-15  1.32883968E-16
  8.42743493E-03 -1.36364144E-02  1.15292250E-02 -1.15135858E-16  6.20683310E-17
  1.20985956E-17  1.45666688E-01  5.86722589E-02  1.45666688E-01  5.86722589E-02
 -1.45666688E-01 -5.86722589E-02 -1.45666688E-01 -5.86722589E-02  2.59434819E-16
 -3.09352954E-15  4.21513765E-15  3.31654469E-01 -4.58633774E-16  2.61116923E-14
 -1.25409096E-14  1.24742929E-01 -5.12960418E-16 -5.65396410E-13  1.58080044E-13
  1.34861731E-02 -3.25405194E-16 -1.08923948E-15 -7.53888597E-16 -1.67805109E-15
  6.02884373E-03 -9.87550290E-17 -3.97711923E-17  4.99866851E-16  4.54351636E-15
 -6.19507775E-15  3.31654469E-01  2.33149445E-16 -2.70119572E-14 -1.49859178E-14
  1.24742929E-01 -9.18846942E-16  5.73628144E-13  1.55194989E-13  1.34861731E-02
  9.48818919E-16  2.26708810E-17  2.33446068E-15  6.20215697E-16 -6.02884373E-03
 -9.68224102E-17 -4.44299768E-17  1.56715765E-01  9.72044102E-02 -1.56715765E-01
 -9.72044102E-02  1.56715765E-01  9.72044102E-02 -1.56715765E-01 -9.72044102E-02
  1.30021061E-02 -3.19745534E-02  4.15147882E-01  5.53425923E-16  1.81049436E-15
  6.33097361E-03  1.39885236E-01 -1.19660915E-15  9.61859906E-16  1.80451201E-02
  3.14855422E-02  1.29419577E-15  6.52964027E-16 -6.02859106E-03  1.89097371E-02
  8.41184390E-05  3.82196312E-16 -1.28883296E-17 -1.86248691E-16  1.30021061E-02
 -3.19745534E-02 -4.15147882E-01 -6.85535801E-15  1.96674007E-15  6.33097361E-03
 -1.39885236E-01  2.46929189E-15  1.27130178E-15  1.80451201E-02 -3.14855422E-02
  9.02893769E-16  2.87526116E-16 -6.02859106E-03  1.89097371E-02  8.41184390E-05
  1.30512225E-16 -3.28328160E-17 -1.45305596E-16  1.25814801E-01  9.72211365E-02
  1.25814801E-01  9.72211365E-02  1.25814801E-01  9.72211365E-02  1.25814801E-01
  9.72211365E-02 -3.17419415E-15 -1.62893142E-14 -5.44927849E-15  3.10324328E-01
  1.10335002E-15  1.03923814E-13 -3.74589531E-14  1.37753101E-01  3.34433436E-16
 -4.28836912E-12  1.17687498E-12  4.34664641E-02  1.13055936E-15 -1.81071459E-15
 -3.85769680E-15 -4.39887929E-15  3.00441666E-02 -1.94871794E-16  7.05246579E-18
  2.48477332E-15  9.34990653E-15  2.20862418E-15 -3.10324328E-01  7.36378226E-16
 -7.83072595E-14 -3.99676629E-14 -1.37753101E-01  1.59089370E-15  4.29721943E-12
  1.16763473E-12 -4.34664641E-02 -8.67824210E-16  2.04653427E-15  2.33202370E-15
  2.70795439E-15  3.00441666E-02  5.53471655E-17  4.89121803E-17  1.97166367E-01
  1.71813422E-01 -1.97166367E-01 -1.71813422E-01 -1.97166367E-01 -1.71813422E-01
  1.97166367E-01  1.71813422E-01 -1.06978393E-16  5.00066449E-16 -1.21037061E-15
 -8.78937485E-16  4.01915878E-01 -1.48787427E-15  1.30563732E-15 -2.65844063E-15
  2.53948776E-01 -1.68762733E-14  3.74699297E-15 -2.33711617E-16  5.47522707E-02
 -3.13881020E-18  1.19129322E-16  4.41704596E-17 -7.17699731E-17 -1.64380696E-02
  5.01778484E-16 -1.07020990E-16  4.84736567E-16  1.26589366E-15  9.69977852E-16
  4.01915878E-01  1.21401470E-15  2.22575868E-15  1.87854817E-15  2.53948776E-01
  1.58531358E-14  5.79794359E-15 -2.31384596E-16  5.47522707E-02  5.79813241E-17
 -5.79543907E-17 -1.29472387E-16 -1.65410426E-16  1.64380696E-02  1.54987525E-16
 -5.04882034E-16  9.73611548E-16 -1.84944402E-16 -2.71851386E-15  6.38282777E-16
 -5.14525079E-16 -1.18156330E-15  8.83268381E-16 -6.14110364E-18  1.85300250E-17
  1.93107578E-16 -1.45130136E-16  3.75793840E-01  2.67372036E-16  4.86724072E-16
  4.37879205E-16  4.45682857E-01 -2.83057015E-14  7.41459534E-15 -6.34163627E-15
  7.47018690E-01  1.86249705E-17 -1.33133906E-17  4.24060396E-18  1.76117647E-19
  2.42529708E-02  3.34290354E-16 -5.42530240E-17 -4.22231353E-18 -1.36655552E-16
 -8.26254795E-16 -3.75793840E-01  1.57363136E-15 -6.34931520E-16 -3.23791953E-16
 -4.45682857E-01  2.96588055E-14  8.49199182E-15  7.23789080E-15 -7.47018690E-01
 -4.70995422E-17 -5.71839798E-17  1.03852180E-16  6.51552558E-17  2.42529708E-02
 -1.00775583E-16 -1.10338134E-16  3.91297611E-16  2.18858392E-17 -1.10442056E-15
 -4.04417872E-16 -2.08154014E-15 -4.19015718E-17 -1.49575930E-15  5.10818065E-02
 -8.50847735E-02 -1.20581809E-01 -1.45140304E-14  8.00638832E-16 -5.16202249E-01
 -1.55349290E-01 -2.60699366E-14  1.25857089E-16  8.21976696E-01  4.27311517E-01
  2.80637350E-14 -8.62965524E-16  1.05020561E-04 -8.54881189E-04  1.43980585E-02
  2.22354242E-16 -1.77031791E-16 -1.15200054E-16  5.10818065E-02 -8.50847735E-02
  1.20581809E-01 -1.09831758E-14  1.09275024E-15 -5.16202249E-01  1.55349290E-01
 -9.13061289E-14  1.54849659E-16  8.21976696E-01 -4.27311517E-01 -5.12134146E-14
 -1.61547874E-15  1.05020561E-04 -8.54881189E-04  1.43980585E-02 -6.49237071E-16
  1.50801355E-16 -5.08306401E-17 -4.18313803E-03 -1.10501264E-02 -4.18313803E-03
 -1.10501264E-02 -4.18313803E-03 -1.10501264E-02 -4.18313803E-03 -1.10501264E-02
 -5.11817931E-02  1.09793608E-01  5.00244748E-02  1.91934405E-14 -9.29899778E-16
  3.83956197E-01  6.86211329E-02  8.25736439E-13 -1.24085663E-15  9.62669507E+00
 -3.29112376E+00  7.23869304E-13  8.92324438E-16 -1.15312360E-02  9.27535300E-03
 -3.01975881E-03  2.55843845E-15 -1.40131864E-16  2.27749730E-17  5.11817931E-02
 -1.09793608E-01  5.00244748E-02  8.60409268E-15  1.99426721E-16 -3.83956197E-01
  6.86211329E-02 -7.18164967E-13  3.44603211E-16 -9.62669507E+00 -3.29112376E+00
 -7.29534093E-13  1.48848460E-15  1.15312360E-02 -9.27535300E-03  3.01975881E-03
  2.03840792E-15 -1.51378997E-16  1.00881566E-16 -2.42147889E-03 -8.14680530E-02
 -2.42147889E-03 -8.14680530E-02  2.42147889E-03  8.14680530E-02  2.42147889E-03
  8.14680530E-02 -2.07841720E-15  1.04400130E-14  3.25378899E-15 -1.84068743E-01
  5.04668924E-16 -2.83254976E-14 -4.62229916E-15 -2.70193907E-01 -1.84439863E-16
 -3.31394127E-13  4.64345726E-14  5.72292967E-01 -3.76277652E-15 -6.31889222E-16
  5.54623046E-16 -5.21569278E-16  3.28736082E-03 -1.21605690E-16  2.56453131E-17
  1.35596487E-15 -3.19794900E-15  1.86405057E-15 -1.84068743E-01  1.16025043E-15
 -1.09660419E-14  2.68761431E-14 -2.70193907E-01  1.96223519E-15  2.46317458E-13
  3.77595848E-14  5.72292967E-01 -8.25148990E-16  1.46175438E-15  1.46284510E-16
 -4.87155054E-16 -3.28736082E-03  2.28375183E-17  1.01294489E-17  1.26782228E-02
  7.22436074E-02 -1.26782228E-02 -7.22436074E-02  1.26782228E-02  7.22436074E-02
 -1.26782228E-02 -7.22436074E-02  5.45553326E-16 -7.36942277E-16 -8.34810563E-16
 -1.30121491E-16 -1.58222142E-01 -4.91712313E-15  1.46940742E-16 -1.15014729E-15
 -2.36514500E-01  2.62628597E-13 -6.18112394E-14 -7.70726416E-15  6.02947480E-01
  1.29754997E-16 -6.20263747E-17  1.32982806E-16  1.19082523E-16  1.12649236E-02
 -5.40082602E-17 -6.11974569E-16  5.49586742E-16 -2.81206709E-16 -1.86445237E-15
 -1.58222142E-01  8.46588053E-15 -9.16796294E-16 -1.15873493E-15 -2.36514500E-01
 -2.56638434E-13 -7.24643774E-14  1.30267487E-14  6.02947480E-01 -7.18224223E-17
 -1.11407675E-16 -1.29679376E-16 -1.15586409E-18 -1.12649236E-02 -6.15327889E-18
  2.93580204E-16 -2.25786950E-15 -3.73835332E-17 -4.93395548E-15 -2.78205637E-16
 -8.65112360E-16 -5.07796104E-16  7.08245859E-16 -3.64092638E-02  4.13681027E-02
 -4.39832196E-02 -3.47861327E-14  7.16279021E-16  5.33550428E-01  4.94035789E-02
 -1.22468634E-13  6.59310481E-16 -7.15970046E-03  1.45221444E+00  2.31100584E-13
 -2.72145146E-15  1.10799391E-02 -2.04711879E-02 -1.66653040E-02 -5.54565084E-16
 -7.64603650E-17 -1.83000353E-18 -3.64092638E-02  4.13681027E-02  4.39832196E-02
  1.31806155E-14  3.51730588E-16  5.33550428E-01 -4.94035789E-02 -2.77468706E-14
  1.32739424E-15 -7.15970047E-03 -1.45221444E+00 -3.30360710E-13 -1.41536200E-15
  1.10799391E-02 -2.04711879E-02 -1.66653040E-02 -3.46281187E-15  1.88176967E-16
 -3.84435371E-17 -2.08728617E-02 -9.04049757E-02 -2.08728617E-02 -9.04049757E-02
 -2.08728617E-02 -9.04049757E-02 -2.08728617E-02 -9.04049757E-02  3.00903918E-14
 -2.50683891E-14 -1.79604900E-14 -1.53999093E-01 -7.60623730E-16 -3.61934993E-13
 -8.24467705E-14 -9.22898330E-02 -2.04196945E-15  1.37967544E-11 -3.89654022E-12
  2.24087409E+00  1.37399221E-14  4.74389914E-15  4.45304712E-15  9.85151980E-15
 -1.12609554E-02  1.26695762E-16  3.04867357E-17 -2.47818100E-14  2.13014293E-14
 -3.93211840E-14  1.53999093E-01 -3.11520257E-16  3.14449029E-13 -1.22513800E-13
  9.22898330E-02 -1.54293995E-15 -1.37576817E-11 -3.48636148E-12 -2.24087409E+00
 -6.92595556E-15 -7.92441774E-15  1.02485848E-16 -5.23231967E-15 -1.12609554E-02
 -6.98356088E-17 -2.68809286E-17 -1.74960711E-02 -1.71448778E-01  1.74960711E-02
  1.71448778E-01  1.74960711E-02  1.71448778E-01 -1.74960711E-02 -1.71448778E-01
 -1.70025133E-15  6.22139990E-16  3.12929104E-15 -2.98393022E-16 -2.65941509E-01
  3.23792337E-14  1.22375998E-14 -7.55853428E-15 -4.80232782E-01 -4.62829186E-13
  1.26728370E-13 -1.85620277E-14  1.98897540E+00 -3.44152623E-16 -5.11738651E-16
 -9.37662181E-17  4.54041493E-16 -9.11034695E-03 -1.55747060E-16 -1.20525811E-16
 -5.15688057E-16 -1.28676818E-15 -2.99776197E-15  2.65941509E-01  9.34201060E-15
 -8.30295349E-15 -3.21583938E-15  4.80232782E-01  4.81043408E-13  1.31352557E-13
  1.13433243E-14 -1.98897540E+00  1.81168973E-16 -2.34386399E-16  3.06289889E-16
 -2.35384015E-16 -9.11034695E-03  2.44420023E-16 -7.35026118E-16 -7.77886024E-15
 -2.90006337E-15 -3.14161415E-14  3.27532482E-16 -1.25798113E-14 -1.40972047E-15
 -2.45391841E-14  5.59953600E-02 -8.19109072E-02 -8.92169226E-02  5.30643980E-13
 -3.58053171E-15 -5.69142680E-01 -4.25152329E-01  5.47609757E-12 -7.43897611E-15
  3.44830967E+01 -9.45801699E+00  2.92423931E-12  1.73753982E-14  7.19654248E-03
  5.32581604E-03  1.02358059E-02 -7.48315848E-15 -1.64133718E-15  5.42474784E-17
 -5.59953600E-02  8.19109072E-02 -8.92169226E-02 -1.24467705E-13  6.95103440E-15
  5.69142679E-01 -4.25152329E-01 -3.95530735E-12  1.64393358E-14 -3.44830967E+01
 -9.45801699E+00 -1.98818663E-12 -3.74571290E-14 -7.19654248E-03 -5.32581604E-03
 -1.02358059E-02  5.53524233E-14 -1.59487336E-16  5.13398786E-18  4.78139630E-02
  1.50590731E-01  4.78139630E-02  1.50590731E-01 -4.78139630E-02 -1.50590731E-01
 -4.78139630E-02 -1.50590731E-01 -5.98892297E-02  4.56209488E-02  1.63516618E-01
 -1.65734035E-13  4.71347066E-15  1.28813522E+00  6.42448413E-01 -4.36275219E-13
  9.92478234E-15  6.57723801E-01 -9.91893857E-02 -3.90917494E-13 -3.96275600E-14
 -3.55431364E-03 -2.77851054E-02  1.55721531E-02  2.35845200E-14 -2.43247878E-17
  7.36579560E-19 -5.98892297E-02  4.56209488E-02 -1.63516618E-01 -1.28474108E-13
 -4.39510399E-15  1.28813522E+00 -6.42448413E-01 -5.27759790E-13 -8.45690480E-15
  6.57723799E-01  9.91893853E-02 -1.71955077E-13  3.65818488E-14 -3.55431364E-03
 -2.77851054E-02  1.55721531E-02 -2.54226285E-14  2.83637023E-16  9.45255842E-17
 -1.00314125E-01 -1.23774597E+00 -1.00314125E-01 -1.23774597E+00 -1.00314125E-01
 -1.23774597E+00 -1.00314125E-01 -1.23774597E+00  1.13654893E-13 -1.00499806E-13
 -1.76886492E-13 -2.24843944E-01  1.81565939E-15 -2.05748430E-12 -5.67547370E-13
 -7.29283115E-01  3.94324102E-15  3.13004400E-11 -8.93864331E-12 -4.52358452E-01
 -1.75100959E-14 -6.40746665E-15  2.55182145E-14 -4.04930721E-15  4.10904760E-02
 -6.49273438E-17  3.27220267E-16 -3.66158109E-14  4.90024229E-14 -1.41653984E-14
 -2.24843944E-01 -2.89059037E-15  3.40818253E-13  3.01609671E-13 -7.29283115E-01
 -2.75878048E-15 -3.22287070E-11 -8.79250369E-12 -4.52358452E-01  1.65911794E-14
  5.11542794E-15  1.81616813E-14 -2.25990139E-14 -4.10904760E-02  4.24176621E-17
 -2.60354745E-16  1.38845112E-01  1.17409713E+00 -1.38845112E-01 -1.17409713E+00
  1.38845112E-01  1.17409713E+00 -1.38845112E-01 -1.17409713E+00 -7.67439178E-02
  9.79895948E-02  7.69706128E-02  3.47276800E-13 -3.97520362E-16  1.26023713E+00
  4.32511708E-01  4.02422767E-12 -2.38116435E-15  2.10442673E+01 -5.22213409E+00
  3.10526796E-12 -2.98402779E-15 -7.49786504E-03 -1.78274872E-02  9.90395363E-03
  3.13486907E-14 -1.36855983E-15 -6.16546273E-17  7.67439178E-02 -9.79895948E-02
  7.69706128E-02 -4.72985506E-13  5.43796521E-16 -1.26023713E+00  4.32511708E-01
 -4.18767351E-12  7.98552361E-15 -2.10442673E+01 -5.22213409E+00 -3.24923145E-12
 -6.51312861E-15  7.49786504E-03  1.78274872E-02 -9.90395363E-03  1.16547375E-14
 -5.86088284E-17  1.61493854E-17 -1.22854881E-01 -1.40635798E+00 -1.22854881E-01
 -1.40635798E+00  1.22854881E-01  1.40635798E+00  1.22854881E-01  1.40635798E+00
 -1.34476238E-12  9.38376934E-13 -2.83619866E-12 -3.78962614E-01  5.02051518E-16
  4.31367690E-11 -3.37338166E-11 -1.82960156E+00 -1.36281817E-15  1.30852662E-11
  3.47732672E-13 -1.85422421E+00  2.13292146E-15 -4.30356937E-13  2.26263847E-13
 -1.09014299E-14 -1.41324655E-02  1.37996499E-16  1.44466870E-16  1.34541034E-12
 -1.05307959E-12 -2.84647493E-12  3.78962614E-01 -2.91855371E-15 -4.30423903E-11
 -3.36636159E-11  1.82960156E+00  4.36314424E-15 -1.31073834E-11  3.02954453E-13
  1.85422421E+00 -2.86374119E-15  4.17521730E-13 -2.35824947E-13  6.70723366E-15
 -1.41324655E-02 -2.99870835E-17 -1.52815977E-16  2.83080491E-02  1.90510166E+00
 -2.83080491E-02 -1.90510166E+00 -2.83080491E-02 -1.90510166E+00  2.83080491E-02
  1.90510166E+00  1.02496662E-01 -9.31730686E-02  2.23622160E-01 -4.76860956E-12
  9.22776480E-16 -3.29250124E+00  2.69469460E+00 -2.22100871E-11 -3.30820408E-15
  6.00936558E+00 -1.90884714E+00 -2.29568833E-11  2.84765725E-15  3.24876137E-02
 -2.34046574E-02  2.08409389E-03 -1.88856192E-13 -9.76714297E-16  3.79120005E-17
 -1.02496662E-01  9.31730686E-02  2.23622160E-01  4.85863946E-12  1.71158171E-15
  3.29250124E+00  2.69469460E+00  2.22857465E-11  3.27446385E-15 -6.00936558E+00
 -1.90884714E+00  2.29947091E-11 -5.75667739E-15 -3.24876137E-02  2.34046574E-02
 -2.08409389E-03 -1.64720543E-13 -1.64115840E-16  1.08800510E-16 -2.65675487E-02
 -2.38376981E-01 -2.65675487E-02 -2.38376981E-01  2.65675487E-02  2.38376981E-01
  2.65675487E-02  2.38376981E-01  2.82425400E-02  5.69163635E-02 -6.08879028E-01
 -5.67875018E-14  6.41747990E-16  4.23433320E-01  1.23450563E+00  8.67763777E-14
  2.18183953E-15 -1.05186363E-01 -7.58983311E-01 -3.94039465E-14 -4.82873906E-15
  7.49370022E-02 -6.08210329E-02 -9.91913228E-03  3.55038801E-15  2.53095587E-16
 -4.96261532E-16  2.82425400E-02  5.69163635E-02  6.08879028E-01  8.09107318E-16
  5.73469503E-15  4.23433320E-01 -1.23450563E+00 -3.69785841E-14 -8.79983092E-15
 -1.05186363E-01  7.58983311E-01  2.44304626E-14  6.85070131E-15  7.49370022E-02
 -6.08210329E-02 -9.91913228E-03 -5.30037901E-15  7.78917160E-17  1.28669434E-16