B_15                                                                    
SP        RB3LYP                                                      6-31+G(d)           
Number of atoms                            I                6
Info1-9                                    I   N=           9
          16          15           0           0           0         110
           1          18        -502
Charge                                     I                0
Multiplicity                               I                1
Number of electrons                        I               16
Number of alpha electrons                  I                8
Number of beta electrons                   I                8
Number of basis functions                  I               46
Number of independent functions            I               46
Number of point charges in /Mol/           I                0
Number of translation vectors              I                0
Atomic numbers                             I   N=           6
           6           6           1           1           1           1
Nuclear charges                            R   N=           6
  6.00000000E+00  6.00000000E+00  1.00000000E+00  1.00000000E+00  1.00000000E+00
  1.00000000E+00
Current cartesian coordinates              R   N=          18
  1.27131137E+00  0.00000000E+00  9.44863066E+00 -1.27131137E+00  0.00000000E+00
  9.44863066E+00  2.34821716E+00  1.70633388E+00  8.99141899E+00  2.34821716E+00
 -1.70633388E+00  9.90584234E+00 -2.34821716E+00  1.70633388E+00  8.99141899E+00
 -2.34821716E+00 -1.70633388E+00  9.90584234E+00
Force Field                                I                0
Int Atom Types                             I   N=           6
           0           0           0           0           0           0
MM charges                                 R   N=           6
  0.00000000E+00  0.00000000E+00  0.00000000E+00  0.00000000E+00  0.00000000E+00
  0.00000000E+00
Integer atomic weights                     I   N=           6
          12          12           1           1           1           1
Real atomic weights                        R   N=           6
  1.20000000E+01  1.20000000E+01  1.00782504E+00  1.00782504E+00  1.00782504E+00
  1.00782504E+00
Atom fragment info                         I   N=           6
           0           0           0           0           0           0
Atom residue num                           I   N=           6
           0           0           0           0           0           0
Nuclear spins                              I   N=           6
           0           0           1           1           1           1
Nuclear ZEff                               R   N=           6
 -3.60000000E+00 -3.60000000E+00 -1.00000000E+00 -1.00000000E+00 -1.00000000E+00
 -1.00000000E+00
Nuclear ZNuc                               R   N=           6
  6.00000000E+00  6.00000000E+00  1.00000000E+00  1.00000000E+00  1.00000000E+00
  1.00000000E+00
Nuclear QMom                               R   N=           6
  0.00000000E+00  0.00000000E+00  0.00000000E+00  0.00000000E+00  0.00000000E+00
  0.00000000E+00
Nuclear GFac                               R   N=           6
  0.00000000E+00  0.00000000E+00  2.79284600E+00  2.79284600E+00  2.79284600E+00
  2.79284600E+00
MicOpt                                     I   N=           6
          -1          -1          -1          -1          -1          -1
Number of contracted shells                I               18
Number of primitive shells                 I               40
Pure/Cartesian d shells                    I                1
Pure/Cartesian f shells                    I                0
Highest angular momentum                   I                2
Largest degree of contraction              I                6
Shell types                                I   N=          18
           0          -1          -1          -1           2           0
          -1          -1          -1           2           0           0
           0           0           0           0           0           0
Number of primitives per shell             I   N=          18
           6           3           1           1           1           6
           3           1           1           1           3           1
           3           1           3           1           3           1
Shell to atom map                          I   N=          18
           1           1           1           1           1           2
           2           2           2           2           3           3
           4           4           5           5           6           6
Primitive exponents                        R   N=          40
  3.04752488E+03  4.57369518E+02  1.03948685E+02  2.92101553E+01  9.28666296E+00
  3.16392696E+00  7.86827235E+00  1.88128854E+00  5.44249258E-01  1.68714478E-01
  4.38000000E-02  8.00000000E-01  3.04752488E+03  4.57369518E+02  1.03948685E+02
  2.92101553E+01  9.28666296E+00  3.16392696E+00  7.86827235E+00  1.88128854E+00
  5.44249258E-01  1.68714478E-01  4.38000000E-02  8.00000000E-01  1.87311370E+01
  2.82539436E+00  6.40121692E-01  1.61277759E-01  1.87311370E+01  2.82539436E+00
  6.40121692E-01  1.61277759E-01  1.87311370E+01  2.82539436E+00  6.40121692E-01
  1.61277759E-01  1.87311370E+01  2.82539436E+00  6.40121692E-01  1.61277759E-01
Contraction coefficients                   R   N=          40
  1.83473713E-03  1.40373228E-02  6.88426223E-02  2.32184443E-01  4.67941348E-01
  3.62311985E-01 -1.19332420E-01 -1.60854152E-01  1.14345644E+00  1.00000000E+00
  1.00000000E+00  1.00000000E+00  1.83473713E-03  1.40373228E-02  6.88426223E-02
  2.32184443E-01  4.67941348E-01  3.62311985E-01 -1.19332420E-01 -1.60854152E-01
  1.14345644E+00  1.00000000E+00  1.00000000E+00  1.00000000E+00  3.34946043E-02
  2.34726953E-01  8.13757326E-01  1.00000000E+00  3.34946043E-02  2.34726953E-01
  8.13757326E-01  1.00000000E+00  3.34946043E-02  2.34726953E-01  8.13757326E-01
  1.00000000E+00  3.34946043E-02  2.34726953E-01  8.13757326E-01  1.00000000E+00
P(S=P) Contraction coefficients            R   N=          40
  0.00000000E+00  0.00000000E+00  0.00000000E+00  0.00000000E+00  0.00000000E+00
  0.00000000E+00  6.89990666E-02  3.16423961E-01  7.44308291E-01  1.00000000E+00
  1.00000000E+00  0.00000000E+00  0.00000000E+00  0.00000000E+00  0.00000000E+00
  0.00000000E+00  0.00000000E+00  0.00000000E+00  6.89990666E-02  3.16423961E-01
  7.44308291E-01  1.00000000E+00  1.00000000E+00  0.00000000E+00  0.00000000E+00
  0.00000000E+00  0.00000000E+00  0.00000000E+00  0.00000000E+00  0.00000000E+00
  0.00000000E+00  0.00000000E+00  0.00000000E+00  0.00000000E+00  0.00000000E+00
  0.00000000E+00  0.00000000E+00  0.00000000E+00  0.00000000E+00  0.00000000E+00
Coordinates of each shell                  R   N=          54
  1.27131137E+00  0.00000000E+00  9.44863066E+00  1.27131137E+00  0.00000000E+00
  9.44863066E+00  1.27131137E+00  0.00000000E+00  9.44863066E+00  1.27131137E+00
  0.00000000E+00  9.44863066E+00  1.27131137E+00  0.00000000E+00  9.44863066E+00
 -1.27131137E+00  0.00000000E+00  9.44863066E+00 -1.27131137E+00  0.00000000E+00
  9.44863066E+00 -1.27131137E+00  0.00000000E+00  9.44863066E+00 -1.27131137E+00
  0.00000000E+00  9.44863066E+00 -1.27131137E+00  0.00000000E+00  9.44863066E+00
  2.34821716E+00  1.70633388E+00  8.99141899E+00  2.34821716E+00  1.70633388E+00
  8.99141899E+00  2.34821716E+00 -1.70633388E+00  9.90584234E+00  2.34821716E+00
 -1.70633388E+00  9.90584234E+00 -2.34821716E+00  1.70633388E+00  8.99141899E+00
 -2.34821716E+00  1.70633388E+00  8.99141899E+00 -2.34821716E+00 -1.70633388E+00
  9.90584234E+00 -2.34821716E+00 -1.70633388E+00  9.90584234E+00
Constraint Structure                       R   N=          18
  1.27131137E+00  0.00000000E+00  9.44863066E+00 -1.27131137E+00  0.00000000E+00
  9.44863066E+00  2.34821716E+00  1.70633388E+00  8.99141899E+00  2.34821716E+00
 -1.70633388E+00  9.90584234E+00 -2.34821716E+00  1.70633388E+00  8.99141899E+00
 -2.34821716E+00 -1.70633388E+00  9.90584234E+00
Num ILSW                                   I              100
ILSW                                       I   N=         100
           0           1           0           0           2           0
           0           0           0           0         402          -1
           5           0           0           0           0           0
           0           0           1           0           0           0
           1           1           0           0           0           0
           0           0      100000           0          -1           0
           0           0           0           0           0           0
           0           0           0           1           0           0
           0           0           1           0           0           0
           0           0           4          41           0           0
           0           0           5           0           0           0
           0           0           0           0           0           0
           0           0           0           0           0           0
           0           0           0           0           0           0
           0           0           0           0           0           0
           0           0           0           0           0           0
           0           0           0           0
Num RLSW                                   I               41
RLSW                                       R   N=          41
  8.00000000E-01  7.20000000E-01  1.00000000E+00  8.10000000E-01  2.00000000E-01
  0.00000000E+00  0.00000000E+00  1.00000000E+00  0.00000000E+00  0.00000000E+00
  0.00000000E+00  0.00000000E+00  1.00000000E+00  0.00000000E+00  0.00000000E+00
  0.00000000E+00  0.00000000E+00  1.00000000E+00  0.00000000E+00  0.00000000E+00
  0.00000000E+00  0.00000000E+00  1.00000000E+00  0.00000000E+00  0.00000000E+00
  0.00000000E+00  0.00000000E+00  1.00000000E+00  0.00000000E+00  0.00000000E+00
  0.00000000E+00  0.00000000E+00  1.00000000E+00  0.00000000E+00  0.00000000E+00
  0.00000000E+00  0.00000000E+00  0.00000000E+00  1.00000000E+00  1.00000000E+00
  0.00000000E+00
MxBond                                     I                3
NBond                                      I   N=           6
           3           3           1           1           1           1
IBond                                      I   N=          18
           2           3           4           1           5           6
           1           0           0           1           0           0
           2           0           0           2           0           0
RBond                                      R   N=          18
  2.00000000E+00  1.00000000E+00  1.00000000E+00  2.00000000E+00  1.00000000E+00
  1.00000000E+00  1.00000000E+00  0.00000000E+00  0.00000000E+00  1.00000000E+00
  0.00000000E+00  0.00000000E+00  1.00000000E+00  0.00000000E+00  0.00000000E+00
  1.00000000E+00  0.00000000E+00  0.00000000E+00
Virial Ratio                               R      2.011877521143127E+00
SCF Energy                                 R     -7.859298515674436E+01
Total Energy                               R     -7.859298515674436E+01
RMS Density                                R      1.139373895621356E-09
External E-field                           R   N=          35
  0.00000000E+00  0.00000000E+00  0.00000000E+00  0.00000000E+00  0.00000000E+00
  0.00000000E+00  0.00000000E+00  0.00000000E+00  0.00000000E+00  0.00000000E+00
  0.00000000E+00  0.00000000E+00  0.00000000E+00  0.00000000E+00  0.00000000E+00
  0.00000000E+00  0.00000000E+00  0.00000000E+00  0.00000000E+00  0.00000000E+00
  0.00000000E+00  0.00000000E+00  0.00000000E+00  0.00000000E+00  0.00000000E+00
  0.00000000E+00  0.00000000E+00  0.00000000E+00  0.00000000E+00  0.00000000E+00
  0.00000000E+00  0.00000000E+00  0.00000000E+00  0.00000000E+00  0.00000000E+00
IOpCl                                      I                0
IROHF                                      I                0
Alpha Orbital Energies                     R   N=          46
 -1.01987071E+01 -1.01979008E+01 -7.62055660E-01 -5.84478241E-01 -4.72680564E-01
 -4.22674133E-01 -3.63216538E-01 -2.75957110E-01 -9.87613726E-03  2.50211309E-02
  3.25740576E-02  4.67129794E-02  6.95726654E-02  8.67318427E-02  8.74547720E-02
  1.27516506E-01  1.56680446E-01  1.76424843E-01  1.90396765E-01  2.43026934E-01
  3.42326203E-01  3.47549330E-01  5.79938278E-01  6.57848376E-01  6.74690217E-01
  7.19168527E-01  7.56765256E-01  8.19623756E-01  8.99524129E-01  9.36430621E-01
  9.63238741E-01  1.00218309E+00  1.16203646E+00  1.21969390E+00  1.44779490E+00
  1.53897344E+00  1.81652161E+00  1.88523511E+00  1.99937239E+00  2.10768497E+00
  2.29199596E+00  2.37010266E+00  2.66501849E+00  2.70045693E+00  4.11589486E+00
  4.25146459E+00
Alpha MO coefficients                      R   N=        2116
  7.01848323E-01  3.45111733E-02  1.76544614E-04 -8.36051404E-16  3.87163657E-16
 -6.26439197E-03 -2.86417425E-04  8.42864168E-15 -2.36188514E-15  6.06911080E-04
 -7.56114438E-04  2.49030702E-15 -3.49678582E-16 -6.66403554E-03 -6.70391922E-03
 -6.88172366E-03 -6.27466385E-17 -1.65621489E-16 -5.92677543E-05  7.01848321E-01
  3.45111732E-02 -1.76544614E-04 -1.59623306E-16  1.18152805E-16 -6.26439194E-03
  2.86417431E-04 -2.26372571E-15  6.67960903E-16  6.06911029E-04  7.56114424E-04
  7.63390558E-17 -9.76221689E-17 -6.66403553E-03 -6.70391920E-03 -6.88172364E-03
 -2.34413253E-16 -1.29401238E-16 -5.92677542E-05 -2.01446765E-04  1.01249292E-03
 -2.01446765E-04  1.01249292E-03 -2.01446765E-04  1.01249292E-03 -2.01446765E-04
  1.01249292E-03  7.02152904E-01  3.51944937E-02 -3.26942715E-04 -2.49669215E-16
 -7.49909292E-17 -1.29491418E-02  2.34694581E-03  2.08667810E-15 -2.18212096E-16
  1.93773233E-02 -5.22204912E-03  9.53936932E-16 -1.00092343E-15 -6.23743156E-03
 -6.52254536E-03 -6.73723963E-03 -1.96157084E-16 -6.60471610E-17 -7.15643231E-05
 -7.02152906E-01 -3.51944938E-02 -3.26942715E-04  2.67279757E-17 -6.67410894E-17
  1.29491418E-02  2.34694581E-03 -1.92870830E-15  1.62197318E-16 -1.93773233E-02
 -5.22204912E-03 -8.29633463E-16  8.73292412E-16  6.23743158E-03  6.52254538E-03
  6.73723965E-03 -2.16597958E-16 -5.67481008E-18  7.15643233E-05 -1.03254358E-04
  1.16856243E-03 -1.03254358E-04  1.16856243E-03  1.03254359E-04 -1.16856244E-03
  1.03254359E-04 -1.16856244E-03 -1.59533649E-01  3.11273617E-01 -1.00793362E-01
  4.36204405E-15 -2.00218793E-15  2.33854045E-01 -4.33517421E-03 -3.31894731E-14
  7.36715969E-15  3.39850901E-03 -8.95491136E-04 -1.71882550E-14  6.49689381E-15
  8.12133797E-03 -8.80278915E-04 -1.54368701E-02 -4.72611275E-16  1.60905270E-16
 -4.85221208E-03 -1.59533649E-01  3.11273617E-01  1.00793362E-01 -6.05964316E-16
 -5.81479383E-16  2.33854045E-01  4.33517421E-03  1.02951459E-14 -3.37693932E-15
  3.39850901E-03  8.95491137E-04  7.99503738E-15 -2.99330318E-15  8.12133797E-03
 -8.80278915E-04 -1.54368701E-02  8.45252948E-16 -1.66070722E-16 -4.85221208E-03
  8.39624721E-02  1.50557216E-02  8.39624721E-02  1.50557216E-02  8.39624721E-02
  1.50557216E-02  8.39624721E-02  1.50557216E-02 -1.23823280E-01  2.49515712E-01
  1.70475262E-01  5.61429116E-15 -1.75494430E-15  2.50193792E-01  6.25062993E-02
 -2.72939492E-14  5.31900241E-15 -3.47766779E-02  1.77119253E-02 -5.34322485E-15
  5.32708503E-15 -8.42743932E-03  1.19506319E-02 -9.84344838E-03  3.73768622E-16
  1.45615397E-16 -7.26471024E-03  1.23823280E-01 -2.49515712E-01  1.70475262E-01
 -3.03378745E-15  3.89535265E-16 -2.50193792E-01  6.25062993E-02  2.79358116E-14
 -5.38234533E-15  3.47766779E-02  1.77119253E-02  4.85693281E-15 -5.12108526E-15
  8.42743932E-03 -1.19506319E-02  9.84344838E-03  2.69910365E-16  1.99800190E-16
  7.26471024E-03  1.45666688E-01  5.86722652E-02  1.45666688E-01  5.86722652E-02
 -1.45666688E-01 -5.86722652E-02 -1.45666688E-01 -5.86722652E-02  1.53740677E-15
 -7.14841750E-15  8.28240333E-15  3.20353660E-01 -8.58386726E-02  8.89953952E-15
 -3.33745246E-15  1.20492459E-01 -3.22858797E-02 -4.45210988E-13  1.21911191E-13
  1.30265820E-02 -3.49054232E-03 -6.54120683E-16 -4.73540568E-16 -1.97530463E-15
  5.82341170E-03 -1.56037701E-03 -6.91875204E-17  3.49969263E-16 -1.44400654E-15
 -1.08741121E-14  3.20353660E-01 -8.58386726E-02  2.68780863E-15 -9.05012246E-15
  1.20492459E-01 -3.22858797E-02  4.40908108E-13  1.14497981E-13  1.30265820E-02
 -3.49054232E-03 -1.70497271E-15 -5.91336215E-16 -1.55476100E-15 -5.82341170E-03
  1.56037701E-03 -3.76929828E-16  1.56715750E-01  9.72043208E-02 -1.56715750E-01
 -9.72043208E-02  1.56715750E-01  9.72043208E-02 -1.56715750E-01 -9.72043208E-02
  1.30020624E-02 -3.19744628E-02  4.15147942E-01 -2.87778275E-15  1.06898763E-15
  6.33108877E-03  1.39885171E-01 -2.09792928E-14  5.37999108E-15  1.80449892E-02
  3.14855854E-02 -5.28633122E-15  2.06691919E-15 -6.02860832E-03  1.76486518E-02
  1.34518003E-03 -8.41439924E-17  1.57269835E-16 -5.43449679E-03  1.30020624E-02
 -3.19744628E-02 -4.15147942E-01 -1.15215502E-14  3.77797650E-15  6.33108877E-03
 -1.39885171E-01  5.80078967E-15 -6.94522946E-16  1.80449892E-02 -3.14855854E-02
  4.99302678E-15 -2.24178728E-15 -6.02860832E-03  1.76486518E-02  1.34518003E-03
  6.99640800E-16 -2.86674023E-16 -5.43449679E-03  1.25814805E-01  9.72211343E-02
  1.25814805E-01  9.72211343E-02  1.25814805E-01  9.72211343E-02  1.25814805E-01
  9.72211343E-02  1.97843966E-15  1.01851274E-16 -6.38545030E-15  2.99750350E-01
 -8.03180099E-02 -2.68959791E-15 -7.85328422E-15  1.33059238E-01 -3.56531979E-02
  2.78325190E-12 -7.58036000E-13  4.19852566E-02 -1.12499063E-02  1.25124536E-16
  1.79474215E-16 -9.67021716E-16  2.90204405E-02 -7.77601320E-03  1.60777085E-17
 -1.73222660E-15 -2.12613683E-16  2.77599470E-15 -2.99750350E-01  8.03180099E-02
  1.62611794E-15 -3.24810930E-15 -1.33059238E-01  3.56531979E-02 -2.78248162E-12
 -7.64072116E-13 -4.19852566E-02  1.12499063E-02  3.81328180E-16 -5.83166778E-16
 -2.95848943E-16  2.90204405E-02 -7.77601320E-03  2.91595477E-16  1.97166364E-01
  1.71813374E-01 -1.97166364E-01 -1.71813374E-01 -1.97166364E-01 -1.71813374E-01
  1.97166364E-01  1.71813374E-01  1.24904134E-15  2.90926231E-15 -3.00539643E-15
  1.04023641E-01  3.88220657E-01 -2.78225843E-14 -6.08113034E-15  6.57267423E-02
  2.45295087E-01 -4.50060208E-14  4.32098305E-15  1.41710136E-02  5.28878948E-02
  1.79743836E-15  1.96902048E-15  2.12300099E-15 -4.25449078E-03 -1.58779658E-02
  3.84379917E-16  1.33292713E-15  2.93060326E-15  3.17275847E-15  1.04023641E-01
  3.88220657E-01 -2.67140888E-14  6.17015177E-15  6.57267423E-02  2.45295087E-01
  5.24131768E-14  2.14196084E-14  1.41710136E-02  5.28878948E-02  1.85345427E-15
  1.90353148E-15  2.40175662E-15  4.25449078E-03  1.58779658E-02  2.68082913E-16
 -1.06458976E-08  1.86711166E-07  1.06458980E-08 -1.86711141E-07 -1.06458896E-08
  1.86711002E-07  1.06458913E-08 -1.86710983E-07  2.08541642E-15 -3.13653408E-15
 -1.49940073E-15  9.72630005E-02  3.62989644E-01 -2.02826771E-14  6.45653152E-15
  1.15351429E-01  4.30497733E-01  1.55434112E-13 -1.60597190E-14  1.93341138E-01
  7.21559725E-01  1.07876528E-15  8.94303651E-16  1.17296462E-15  6.27715483E-03
  2.34265858E-02  4.81937631E-16 -1.22493745E-15  1.16189330E-15  6.48964512E-16
 -9.72630005E-02 -3.62989644E-01  1.54078651E-14  6.84137705E-15 -1.15351429E-01
 -4.30497733E-01 -1.33267393E-13 -2.79278521E-14 -1.93341138E-01 -7.21559725E-01
 -1.07547761E-15 -8.34828520E-16 -1.05748380E-15  6.27715483E-03  2.34265858E-02
 -8.95338862E-17 -4.87890963E-10  2.78423462E-07  4.87896081E-10 -2.78423487E-07
  4.87858502E-10 -2.78422811E-07 -4.87864473E-10  2.78422823E-07  5.10821227E-02
 -8.50847805E-02 -1.20580375E-01 -7.14788212E-15  1.03957723E-15 -5.16203939E-01
 -1.55345643E-01  2.64739674E-14 -1.53550170E-14  8.21981166E-01  4.27285954E-01
  3.94931279E-14 -2.89648547E-14  1.04901088E-04  1.67182079E-04  1.33766298E-02
 -5.24596452E-16 -4.77343925E-16  4.40315843E-03  5.10821227E-02 -8.50847804E-02
  1.20580375E-01  2.65307025E-16  9.72559288E-15 -5.16203938E-01  1.55345643E-01
 -4.21777987E-14  1.66672515E-14  8.21981167E-01 -4.27285954E-01 -3.56466806E-14
  2.63982312E-15  1.04901087E-04  1.67182080E-04  1.33766298E-02 -4.64555596E-16
  9.38436463E-17  4.40315843E-03 -4.18296984E-03 -1.10565411E-02 -4.18296984E-03
 -1.10565411E-02 -4.18296984E-03 -1.10565411E-02 -4.18296984E-03 -1.10565411E-02
 -5.11817941E-02  1.09793609E-01  5.00244526E-02 -3.17982062E-14  1.32237681E-14
  3.83956960E-01  6.86206652E-02 -1.17604336E-12  3.22696144E-13  9.62673220E+00
 -3.29113355E+00 -9.45138155E-13  2.78254656E-13 -1.15312248E-02  8.45173402E-03
 -2.19614142E-03  1.59923134E-15 -7.45638259E-17 -3.54930055E-03  5.11817941E-02
 -1.09793609E-01  5.00244526E-02 -4.22105944E-14  7.09763550E-15 -3.83956960E-01
  6.86206653E-02  6.94982401E-13 -1.93134323E-13 -9.62673220E+00 -3.29113355E+00
  8.30101722E-13 -2.49309285E-13  1.15312248E-02 -8.45173402E-03  2.19614142E-03
 -2.94994905E-15  1.14695709E-15  3.54930055E-03 -2.42147183E-03 -8.14688125E-02
 -2.42147183E-03 -8.14688125E-02  2.42147183E-03  8.14688125E-02  2.42147183E-03
  8.14688125E-02  1.13934445E-14 -1.73168281E-14 -1.44167483E-14 -1.77796016E-01
  4.76433174E-02 -1.20417036E-13 -7.31908313E-14 -2.60986178E-01  6.99356193E-02
  1.44283079E-12 -3.18370169E-13  5.52789684E-01 -1.48130755E-01  3.58634812E-15
 -1.71741859E-16  7.58086221E-16  3.17531009E-03 -8.51024701E-04  6.33780904E-16
 -9.53698441E-15  1.72415895E-14 -8.26260954E-15 -1.77796016E-01  4.76433174E-02
  5.69130637E-14 -3.15043575E-14 -2.60986178E-01  6.99356193E-02 -1.51387260E-12
 -3.33195603E-13  5.52789684E-01 -1.48130755E-01 -3.03041456E-15  5.67774694E-16
 -1.62817176E-15 -3.17531009E-03  8.51024701E-04 -6.38524096E-16  1.26782978E-02
  7.22437917E-02 -1.26782978E-02 -7.22437917E-02  1.26782978E-02  7.22437917E-02
 -1.26782978E-02 -7.22437917E-02  1.67401982E-16  5.03224213E-16 -6.11450358E-15
 -4.09544482E-02 -1.52829476E-01 -7.26719000E-15 -1.34213777E-14 -6.12217125E-02
 -2.28455466E-01 -9.16693360E-14  1.09406545E-13  1.56063064E-01  5.82400616E-01
 -4.30929891E-17 -1.57519107E-15 -1.07986811E-15  2.91567273E-03  1.08809685E-02
  8.87120703E-17 -3.33040265E-16 -5.41642197E-17  5.75011292E-15 -4.09544482E-02
 -1.52829476E-01  4.49009912E-15  7.87038580E-15 -6.12217125E-02 -2.28455466E-01
  1.09139044E-13 -6.18787316E-14  1.56063064E-01  5.82400616E-01 -2.43828870E-16
 -1.70464724E-15 -1.29236745E-15 -2.91567273E-03 -1.08809685E-02  1.04000745E-16
  4.76455716E-07  4.82943247E-06 -4.76455718E-07 -4.82943243E-06  4.76455261E-07
  4.82942378E-06 -4.76455264E-07 -4.82942377E-06 -3.64075743E-02  4.13651904E-02
 -4.39872563E-02  3.71489943E-13 -9.07206974E-14  5.33522819E-01  4.93902952E-02
  1.03944184E-14  2.65901037E-14 -7.15658398E-03  1.45222380E+00 -5.90966475E-12
  1.51677325E-12  1.10798526E-02 -2.02160473E-02 -1.69201536E-02  3.13489724E-14
 -8.89492852E-15  1.09863231E-03 -3.64075743E-02  4.13651904E-02  4.39872563E-02
 -4.13073747E-13  1.13247573E-13  5.33522819E-01 -4.93902952E-02 -2.78532245E-13
  8.66676421E-14 -7.15658258E-03 -1.45222380E+00  5.72668154E-12 -1.53474943E-12
  1.10798526E-02 -2.02160473E-02 -1.69201536E-02  2.60510511E-14 -6.34484031E-15
  1.09863231E-03 -2.08720494E-02 -9.03853638E-02 -2.08720494E-02 -9.03853638E-02
 -2.08720494E-02 -9.03853638E-02 -2.08720494E-02 -9.03853638E-02 -9.87287858E-14
  1.42735917E-13 -1.16521204E-13 -1.48751615E-01  3.98583371E-02  1.20714196E-12
  9.35691500E-14 -8.91453828E-02  2.38873141E-02 -9.39024088E-12  6.26340316E-12
  2.16451674E+00 -5.79984336E-01  2.96905597E-14 -4.94299762E-14 -4.42765777E-14
 -1.08772425E-02  2.91456493E-03  1.32806841E-15 -7.84276180E-14  8.76325091E-14
  1.49158586E-13  1.48751615E-01 -3.98583371E-02  1.19800549E-12  4.26410015E-14
  8.91453828E-02 -2.38873142E-02  9.14068752E-12 -1.47560749E-12 -2.16451674E+00
  5.79984336E-01  3.35954722E-14 -5.07991998E-14 -4.24789162E-14 -1.08772425E-02
  2.91456493E-03  2.66818976E-15 -1.74960319E-02 -1.71448266E-01  1.74960319E-02
  1.71448266E-01  1.74960319E-02  1.71448266E-01 -1.74960319E-02 -1.71448266E-01
  2.69481420E-15  7.45473337E-15 -1.22294119E-14 -6.88309357E-02 -2.56878891E-01
 -1.32976515E-13 -4.30158684E-14 -1.24293910E-01 -4.63867566E-01 -2.53374747E-12
  7.12277390E-13  5.14788427E-01  1.92120351E+00 -4.43504677E-16  1.55549459E-15
 -1.99262767E-15 -2.35794127E-03 -8.79984489E-03 -1.50441442E-15  1.14444605E-14
 -3.94720232E-15  2.45854555E-14  6.88309357E-02  2.56878891E-01 -2.21736718E-13
  1.41886133E-13  1.24293910E-01  4.63867566E-01  2.34438491E-12  6.40936320E-13
 -5.14788427E-01 -1.92120351E+00  3.21987311E-15  4.02524024E-15  5.27717528E-16
 -2.35794127E-03 -8.79984489E-03 -1.13596685E-15 -4.40159821E-08  3.92808429E-07
  4.40159970E-08 -3.92808141E-07  4.40165648E-08 -3.92800854E-07 -4.40165375E-08
  3.92801258E-07  5.59958763E-02 -8.19115168E-02 -8.92174633E-02 -9.05128724E-13
  2.24227945E-13 -5.69152746E-01 -4.25153422E-01 -7.08262906E-12  1.83597337E-12
  3.44829605E+01 -9.45798286E+00 -4.28423080E-12  1.30849953E-12  7.19654892E-03
  5.65480212E-03  9.90692356E-03  9.72918638E-14 -2.64760348E-14  1.41737655E-03
 -5.59958763E-02  8.19115168E-02 -8.92174633E-02 -4.07347284E-13  1.28474907E-13
  5.69152746E-01 -4.25153422E-01  1.50864772E-12 -3.46402766E-13 -3.44829605E+01
 -9.45798286E+00  7.51484765E-13 -3.58491498E-13 -7.19654892E-03 -5.65480212E-03
 -9.90692356E-03 -1.28870831E-13  3.34975164E-14 -1.41737655E-03  4.78144667E-02
  1.50599686E-01  4.78144667E-02  1.50599686E-01 -4.78144667E-02 -1.50599686E-01
 -4.78144667E-02 -1.50599686E-01 -5.98900035E-02  4.56229658E-02  1.63516115E-01
 -4.63407665E-13  6.94135691E-14  1.28814609E+00  6.42451176E-01 -1.30850158E-12
  2.99999469E-13  6.57719526E-01 -9.91703028E-02 -4.24824338E-13  4.08025647E-13
 -3.55398111E-03 -2.48808571E-02  1.26673601E-02  7.01977119E-14 -2.04723513E-14
  1.25161022E-02 -5.98900035E-02  4.56229658E-02 -1.63516115E-01 -3.82797535E-13
  1.44062345E-13  1.28814609E+00 -6.42451176E-01 -1.52555710E-12  4.75272785E-13
  6.57719525E-01  9.91703025E-02 -1.28777023E-12  6.21826687E-14 -3.55398111E-03
 -2.48808571E-02  1.26673601E-02 -7.44209973E-14  1.71612865E-14  1.25161022E-02
 -1.00313801E-01 -1.23774841E+00 -1.00313801E-01 -1.23774841E+00 -1.00313801E-01
 -1.23774841E+00 -1.00313801E-01 -1.23774841E+00 -1.50248938E-13  2.28994733E-13
  8.27492073E-14 -2.17182308E-01  5.81944648E-02  9.81452535E-13  5.42101111E-13
 -7.04433261E-01  1.88753162E-01 -1.07599537E-10  2.98604163E-11 -4.36945112E-01
  1.17077667E-01 -2.17352149E-14  1.38617217E-14 -7.14229522E-14  3.96903516E-02
 -1.06350648E-02 -2.47924021E-14  3.98062302E-13 -5.35993986E-13  7.34062773E-13
 -2.17182308E-01  5.81944648E-02 -5.96909654E-12  3.04089864E-12 -7.04433261E-01
  1.88753162E-01  1.04999961E-10  2.99253991E-11 -4.36945112E-01  1.17077667E-01
  7.59126574E-15  7.96042656E-14 -2.83427639E-15 -3.96903516E-02  1.06350648E-02
 -2.76143558E-14  1.38845116E-01  1.17409730E+00 -1.38845116E-01 -1.17409730E+00
  1.38845116E-01  1.17409730E+00 -1.38845116E-01 -1.17409730E+00 -7.67434858E-02
  9.79891377E-02  7.69700806E-02 -1.25892949E-13  1.53059619E-14  1.26023002E+00
  4.32512279E-01 -3.03331032E-12  8.32231970E-13  2.10444719E+01 -5.22219024E+00
 -2.42358960E-12  6.42315018E-13 -7.49785722E-03 -1.59698229E-02  8.04644198E-03
 -7.73223109E-14  1.99947909E-14  8.00543968E-03  7.67434858E-02 -9.79891377E-02
  7.69700806E-02  6.95385047E-13 -1.62934905E-13 -1.26023002E+00  4.32512279E-01
  4.24996040E-12 -1.16894426E-12 -2.10444719E+01 -5.22219024E+00  3.15906102E-12
 -8.29580455E-13  7.49785722E-03  1.59698229E-02 -8.04644198E-03  3.92840417E-14
 -1.20635221E-14 -8.00543968E-03 -1.22854872E-01 -1.40635710E+00 -1.22854872E-01
 -1.40635710E+00  1.22854872E-01  1.40635710E+00  1.22854872E-01  1.40635710E+00
  2.96855751E-13 -3.20351000E-13  5.45707210E-13 -3.66049867E-01  9.80830305E-02
 -8.68540848E-12  6.10650380E-12 -1.76725827E+00  4.73536429E-01 -7.19299101E-11
  1.84434460E-11 -1.79104321E+00  4.79908862E-01  8.59216368E-14 -2.74420449E-14
 -5.34229032E-14 -1.36509060E-02  3.65775228E-03 -3.53698519E-15 -2.98575236E-13
  1.87382881E-13  5.97937904E-13  3.66049867E-01 -9.80830305E-02  8.96472679E-12
  5.94951385E-12  1.76725827E+00 -4.73536429E-01  7.19014827E-11  1.85767812E-11
  1.79104321E+00 -4.79908862E-01 -9.36285784E-14  1.44190617E-14  2.90938649E-14
 -1.36509060E-02  3.65775228E-03  6.33840560E-15  2.83080686E-02  1.90510142E+00
 -2.83080686E-02 -1.90510142E+00 -2.83080686E-02 -1.90510142E+00  2.83080686E-02
  1.90510142E+00  1.02496703E-01 -9.31732324E-02  2.23622352E-01  8.23677693E-13
 -2.18225593E-13 -3.29250118E+00  2.69469404E+00  3.92903222E-12 -1.05535178E-12
  6.00933380E+00 -1.90883885E+00  4.02475481E-12 -1.09354822E-12  3.24876548E-02
 -2.16972363E-02  3.76603916E-04  3.66468397E-14 -9.63914797E-15  7.35797255E-03
 -1.02496703E-01  9.31732324E-02  2.23622352E-01 -8.65026457E-13  2.32315869E-13
  3.29250118E+00  2.69469404E+00 -3.97158053E-12  1.06352793E-12 -6.00933380E+00
 -1.90883885E+00 -4.07044973E-12  1.10707083E-12 -3.24876548E-02  2.16972363E-02
 -3.76603916E-04  2.59902894E-14 -7.38444852E-15 -7.35797255E-03 -2.65673787E-02
 -2.38376112E-01 -2.65673787E-02 -2.38376112E-01  2.65673787E-02  2.38376112E-01
  2.65673787E-02  2.38376112E-01  2.82425844E-02  5.69172395E-02 -6.08879138E-01
  3.24270757E-14  1.98506951E-15  4.23431887E-01  1.23450539E+00 -7.13384560E-16
 -1.13654638E-14 -1.05186526E-01 -7.58982754E-01  5.99468434E-14  3.93511625E-15
  7.49371378E-02 -5.74110774E-02 -1.33289532E-02 -1.64178145E-17 -3.21649223E-15
  1.46940677E-02  2.82425844E-02  5.69172395E-02  6.08879138E-01 -6.10965731E-14
  5.27068961E-14  4.23431887E-01 -1.23450539E+00  5.64936464E-14 -5.66888940E-14
 -1.05186526E-01  7.58982754E-01 -6.59786528E-14  1.76639513E-14  7.49371378E-02
 -5.74110774E-02 -1.33289532E-02  1.50701628E-15  1.21213398E-15  1.46940677E-02