B_45                                                                    
SP        RB3LYP                                                      6-31+G(d)           
Number of atoms                            I                6
Info1-9                                    I   N=           9
          15          15           0           0           0         110
           1          18        -502
Charge                                     I                0
Multiplicity                               I                1
Number of electrons                        I               16
Number of alpha electrons                  I                8
Number of beta electrons                   I                8
Number of basis functions                  I               46
Number of independent functions            I               46
Number of point charges in /Mol/           I                0
Number of translation vectors              I                0
Atomic numbers                             I   N=           6
           6           6           1           1           1           1
Nuclear charges                            R   N=           6
  6.00000000E+00  6.00000000E+00  1.00000000E+00  1.00000000E+00  1.00000000E+00
  1.00000000E+00
Current cartesian coordinates              R   N=          18
  1.27131137E+00  0.00000000E+00  9.44863066E+00 -1.27131137E+00  0.00000000E+00
  9.44863066E+00  2.34821716E+00  1.24912409E+00  8.19950657E+00  2.34821716E+00
 -1.24912409E+00  1.06977548E+01 -2.34821716E+00  1.24912409E+00  8.19950657E+00
 -2.34821716E+00 -1.24912409E+00  1.06977548E+01
Force Field                                I                0
Int Atom Types                             I   N=           6
           0           0           0           0           0           0
MM charges                                 R   N=           6
  0.00000000E+00  0.00000000E+00  0.00000000E+00  0.00000000E+00  0.00000000E+00
  0.00000000E+00
Integer atomic weights                     I   N=           6
          12          12           1           1           1           1
Real atomic weights                        R   N=           6
  1.20000000E+01  1.20000000E+01  1.00782504E+00  1.00782504E+00  1.00782504E+00
  1.00782504E+00
Atom fragment info                         I   N=           6
           0           0           0           0           0           0
Atom residue num                           I   N=           6
           0           0           0           0           0           0
Nuclear spins                              I   N=           6
           0           0           1           1           1           1
Nuclear ZEff                               R   N=           6
 -3.60000000E+00 -3.60000000E+00 -1.00000000E+00 -1.00000000E+00 -1.00000000E+00
 -1.00000000E+00
Nuclear ZNuc                               R   N=           6
  6.00000000E+00  6.00000000E+00  1.00000000E+00  1.00000000E+00  1.00000000E+00
  1.00000000E+00
Nuclear QMom                               R   N=           6
  0.00000000E+00  0.00000000E+00  0.00000000E+00  0.00000000E+00  0.00000000E+00
  0.00000000E+00
Nuclear GFac                               R   N=           6
  0.00000000E+00  0.00000000E+00  2.79284600E+00  2.79284600E+00  2.79284600E+00
  2.79284600E+00
MicOpt                                     I   N=           6
          -1          -1          -1          -1          -1          -1
Number of contracted shells                I               18
Number of primitive shells                 I               40
Pure/Cartesian d shells                    I                1
Pure/Cartesian f shells                    I                0
Highest angular momentum                   I                2
Largest degree of contraction              I                6
Shell types                                I   N=          18
           0          -1          -1          -1           2           0
          -1          -1          -1           2           0           0
           0           0           0           0           0           0
Number of primitives per shell             I   N=          18
           6           3           1           1           1           6
           3           1           1           1           3           1
           3           1           3           1           3           1
Shell to atom map                          I   N=          18
           1           1           1           1           1           2
           2           2           2           2           3           3
           4           4           5           5           6           6
Primitive exponents                        R   N=          40
  3.04752488E+03  4.57369518E+02  1.03948685E+02  2.92101553E+01  9.28666296E+00
  3.16392696E+00  7.86827235E+00  1.88128854E+00  5.44249258E-01  1.68714478E-01
  4.38000000E-02  8.00000000E-01  3.04752488E+03  4.57369518E+02  1.03948685E+02
  2.92101553E+01  9.28666296E+00  3.16392696E+00  7.86827235E+00  1.88128854E+00
  5.44249258E-01  1.68714478E-01  4.38000000E-02  8.00000000E-01  1.87311370E+01
  2.82539436E+00  6.40121692E-01  1.61277759E-01  1.87311370E+01  2.82539436E+00
  6.40121692E-01  1.61277759E-01  1.87311370E+01  2.82539436E+00  6.40121692E-01
  1.61277759E-01  1.87311370E+01  2.82539436E+00  6.40121692E-01  1.61277759E-01
Contraction coefficients                   R   N=          40
  1.83473713E-03  1.40373228E-02  6.88426223E-02  2.32184443E-01  4.67941348E-01
  3.62311985E-01 -1.19332420E-01 -1.60854152E-01  1.14345644E+00  1.00000000E+00
  1.00000000E+00  1.00000000E+00  1.83473713E-03  1.40373228E-02  6.88426223E-02
  2.32184443E-01  4.67941348E-01  3.62311985E-01 -1.19332420E-01 -1.60854152E-01
  1.14345644E+00  1.00000000E+00  1.00000000E+00  1.00000000E+00  3.34946043E-02
  2.34726953E-01  8.13757326E-01  1.00000000E+00  3.34946043E-02  2.34726953E-01
  8.13757326E-01  1.00000000E+00  3.34946043E-02  2.34726953E-01  8.13757326E-01
  1.00000000E+00  3.34946043E-02  2.34726953E-01  8.13757326E-01  1.00000000E+00
P(S=P) Contraction coefficients            R   N=          40
  0.00000000E+00  0.00000000E+00  0.00000000E+00  0.00000000E+00  0.00000000E+00
  0.00000000E+00  6.89990666E-02  3.16423961E-01  7.44308291E-01  1.00000000E+00
  1.00000000E+00  0.00000000E+00  0.00000000E+00  0.00000000E+00  0.00000000E+00
  0.00000000E+00  0.00000000E+00  0.00000000E+00  6.89990666E-02  3.16423961E-01
  7.44308291E-01  1.00000000E+00  1.00000000E+00  0.00000000E+00  0.00000000E+00
  0.00000000E+00  0.00000000E+00  0.00000000E+00  0.00000000E+00  0.00000000E+00
  0.00000000E+00  0.00000000E+00  0.00000000E+00  0.00000000E+00  0.00000000E+00
  0.00000000E+00  0.00000000E+00  0.00000000E+00  0.00000000E+00  0.00000000E+00
Coordinates of each shell                  R   N=          54
  1.27131137E+00  0.00000000E+00  9.44863066E+00  1.27131137E+00  0.00000000E+00
  9.44863066E+00  1.27131137E+00  0.00000000E+00  9.44863066E+00  1.27131137E+00
  0.00000000E+00  9.44863066E+00  1.27131137E+00  0.00000000E+00  9.44863066E+00
 -1.27131137E+00  0.00000000E+00  9.44863066E+00 -1.27131137E+00  0.00000000E+00
  9.44863066E+00 -1.27131137E+00  0.00000000E+00  9.44863066E+00 -1.27131137E+00
  0.00000000E+00  9.44863066E+00 -1.27131137E+00  0.00000000E+00  9.44863066E+00
  2.34821716E+00  1.24912409E+00  8.19950657E+00  2.34821716E+00  1.24912409E+00
  8.19950657E+00  2.34821716E+00 -1.24912409E+00  1.06977548E+01  2.34821716E+00
 -1.24912409E+00  1.06977548E+01 -2.34821716E+00  1.24912409E+00  8.19950657E+00
 -2.34821716E+00  1.24912409E+00  8.19950657E+00 -2.34821716E+00 -1.24912409E+00
  1.06977548E+01 -2.34821716E+00 -1.24912409E+00  1.06977548E+01
Constraint Structure                       R   N=          18
  1.27131137E+00  0.00000000E+00  9.44863066E+00 -1.27131137E+00  0.00000000E+00
  9.44863066E+00  2.34821716E+00  1.24912409E+00  8.19950657E+00  2.34821716E+00
 -1.24912409E+00  1.06977548E+01 -2.34821716E+00  1.24912409E+00  8.19950657E+00
 -2.34821716E+00 -1.24912409E+00  1.06977548E+01
Num ILSW                                   I              100
ILSW                                       I   N=         100
           0           1           0           0           2           0
           0           0           0           0         402          -1
           5           0           0           0           0           0
           0           0           1           0           0           0
           1           1           0           0           0           0
           0           0      100000           0          -1           0
           0           0           0           0           0           0
           0           0           0           1           0           0
           0           0           1           0           0           0
           0           0           4          41           0           0
           0           0           5           0           0           0
           0           0           0           0           0           0
           0           0           0           0           0           0
           0           0           0           0           0           0
           0           0           0           0           0           0
           0           0           0           0           0           0
           0           0           0           0
Num RLSW                                   I               41
RLSW                                       R   N=          41
  8.00000000E-01  7.20000000E-01  1.00000000E+00  8.10000000E-01  2.00000000E-01
  0.00000000E+00  0.00000000E+00  1.00000000E+00  0.00000000E+00  0.00000000E+00
  0.00000000E+00  0.00000000E+00  1.00000000E+00  0.00000000E+00  0.00000000E+00
  0.00000000E+00  0.00000000E+00  1.00000000E+00  0.00000000E+00  0.00000000E+00
  0.00000000E+00  0.00000000E+00  1.00000000E+00  0.00000000E+00  0.00000000E+00
  0.00000000E+00  0.00000000E+00  1.00000000E+00  0.00000000E+00  0.00000000E+00
  0.00000000E+00  0.00000000E+00  1.00000000E+00  0.00000000E+00  0.00000000E+00
  0.00000000E+00  0.00000000E+00  0.00000000E+00  1.00000000E+00  1.00000000E+00
  0.00000000E+00
MxBond                                     I                3
NBond                                      I   N=           6
           3           3           1           1           1           1
IBond                                      I   N=          18
           2           3           4           1           5           6
           1           0           0           1           0           0
           2           0           0           2           0           0
RBond                                      R   N=          18
  2.00000000E+00  1.00000000E+00  1.00000000E+00  2.00000000E+00  1.00000000E+00
  1.00000000E+00  1.00000000E+00  0.00000000E+00  0.00000000E+00  1.00000000E+00
  0.00000000E+00  0.00000000E+00  1.00000000E+00  0.00000000E+00  0.00000000E+00
  1.00000000E+00  0.00000000E+00  0.00000000E+00
Virial Ratio                               R      2.011877538301341E+00
SCF Energy                                 R     -7.859298490046388E+01
Total Energy                               R     -7.859298490046388E+01
RMS Density                                R      1.139175747913769E-09
External E-field                           R   N=          35
  0.00000000E+00  0.00000000E+00  0.00000000E+00  0.00000000E+00  0.00000000E+00
  0.00000000E+00  0.00000000E+00  0.00000000E+00  0.00000000E+00  0.00000000E+00
  0.00000000E+00  0.00000000E+00  0.00000000E+00  0.00000000E+00  0.00000000E+00
  0.00000000E+00  0.00000000E+00  0.00000000E+00  0.00000000E+00  0.00000000E+00
  0.00000000E+00  0.00000000E+00  0.00000000E+00  0.00000000E+00  0.00000000E+00
  0.00000000E+00  0.00000000E+00  0.00000000E+00  0.00000000E+00  0.00000000E+00
  0.00000000E+00  0.00000000E+00  0.00000000E+00  0.00000000E+00  0.00000000E+00
IOpCl                                      I                0
IROHF                                      I                0
Alpha Orbital Energies                     R   N=          46
 -1.01987069E+01 -1.01979006E+01 -7.62055310E-01 -5.84477828E-01 -4.72680273E-01
 -4.22673732E-01 -3.63216260E-01 -2.75956725E-01 -9.87639020E-03  2.50218848E-02
  3.25740248E-02  4.67127314E-02  6.95779270E-02  8.67339385E-02  8.74549081E-02
  1.27514828E-01  1.56679229E-01  1.76426086E-01  1.90396706E-01  2.43025301E-01
  3.42326184E-01  3.47549459E-01  5.79938744E-01  6.57848849E-01  6.74691740E-01
  7.19168236E-01  7.56765443E-01  8.19624909E-01  8.99524138E-01  9.36430434E-01
  9.63238486E-01  1.00218246E+00  1.16203647E+00  1.21969428E+00  1.44779527E+00
  1.53897380E+00  1.81652197E+00  1.88523503E+00  1.99937183E+00  2.10768538E+00
  2.29199583E+00  2.37010300E+00  2.66501766E+00  2.70045724E+00  4.11589501E+00
  4.25146473E+00
Alpha MO coefficients                      R   N=        2116
  7.01848325E-01  3.45111650E-02  1.76545186E-04 -7.95821328E-16  5.42082211E-16
 -6.26439099E-03 -2.86417692E-04  2.93221532E-15 -2.97424571E-15  6.06911226E-04
 -7.56113603E-04  1.71091231E-15 -7.68901855E-16 -6.66403247E-03 -6.79281821E-03
 -6.79281821E-03  3.61559579E-16  1.49341354E-17 -1.18535834E-04  7.01848322E-01
  3.45111648E-02 -1.76545187E-04 -4.26690230E-16  3.21381531E-16 -6.26439094E-03
  2.86417701E-04  1.51304328E-15 -1.11111392E-15  6.06911146E-04  7.56113581E-04
 -1.71396464E-16 -1.20421299E-15 -6.66403245E-03 -6.79281818E-03 -6.79281818E-03
  4.09275964E-17 -3.80978537E-16 -1.18535833E-04 -2.01446676E-04  1.01249231E-03
 -2.01446676E-04  1.01249231E-03 -2.01446676E-04  1.01249230E-03 -2.01446676E-04
  1.01249230E-03  7.02152905E-01  3.51944864E-02 -3.26941635E-04  1.40330440E-15
 -1.05107605E-15 -1.29491458E-02  2.34694860E-03 -1.19462124E-14  1.17619660E-14
  1.93773349E-02 -5.22205206E-03 -5.13753366E-15  4.54147218E-15 -6.23742950E-03
 -6.62988902E-03 -6.62988902E-03 -4.35649266E-16  4.33965103E-16 -1.43128999E-04
 -7.02152908E-01 -3.51944865E-02 -3.26941634E-04 -8.84430261E-16  1.02479639E-15
  1.29491459E-02  2.34694860E-03  1.10890156E-14 -1.12354154E-14 -1.93773349E-02
 -5.22205206E-03  5.09433709E-15 -4.20180313E-15  6.23742953E-03  6.62988905E-03
  6.62988905E-03 -4.49633223E-16  4.79732544E-16  1.43128999E-04 -1.03254092E-04
  1.16856138E-03 -1.03254092E-04  1.16856138E-03  1.03254093E-04 -1.16856138E-03
  1.03254093E-04 -1.16856138E-03 -1.59533642E-01  3.11273595E-01 -1.00793419E-01
 -1.60866014E-15  1.53926160E-15  2.33854080E-01 -4.33517592E-03  1.27879400E-15
 -2.21048923E-15  3.39842206E-03 -8.95424328E-04  4.62903860E-15 -3.48619088E-15
  8.12131888E-03 -8.15857368E-03 -8.15857368E-03 -6.23378577E-17  1.12319705E-16
 -9.70440268E-03 -1.59533642E-01  3.11273595E-01  1.00793419E-01 -2.01467162E-15
  1.58911217E-15  2.33854080E-01  4.33517592E-03 -3.02833546E-15  2.25146852E-15
  3.39842205E-03  8.95424325E-04 -4.54292360E-15  4.36896980E-15  8.12131888E-03
 -8.15857368E-03 -8.15857368E-03 -5.41533179E-17  3.21680815E-16 -9.70440268E-03
  8.39624262E-02  1.50558309E-02  8.39624262E-02  1.50558309E-02  8.39624262E-02
  1.50558309E-02  8.39624262E-02  1.50558309E-02 -1.23823265E-01  2.49515626E-01
  1.70475191E-01 -3.68999717E-15  3.44305375E-15  2.50194058E-01  6.25062857E-02
  1.27283013E-14 -1.36805628E-14 -3.47741889E-02  1.77113094E-02  5.31466707E-15
 -5.22741294E-15 -8.42743825E-03  1.05359314E-03  1.05359314E-03  2.75955654E-17
  9.78569360E-17 -1.45293982E-02  1.23823265E-01 -2.49515626E-01  1.70475191E-01
  2.49240191E-15 -2.56852012E-15 -2.50194058E-01  6.25062857E-02 -8.06578473E-15
  8.78377697E-15  3.47741889E-02  1.77113094E-02 -2.93359284E-15  3.17452172E-15
  8.42743825E-03 -1.05359314E-03 -1.05359314E-03 -1.12738598E-16  1.76724070E-16
  1.45293982E-02  1.45666659E-01  5.86722611E-02  1.45666659E-01  5.86722611E-02
 -1.45666659E-01 -5.86722611E-02 -1.45666659E-01 -5.86722611E-02 -8.22336379E-17
  8.43435050E-15 -1.83236521E-15  2.34515105E-01 -2.34515105E-01 -2.82715579E-14
  9.79296648E-15  8.82065908E-02 -8.82065908E-02  2.86577373E-12 -7.69743259E-13
  9.53619283E-03 -9.53619283E-03  2.32395263E-15 -1.63524337E-17  6.38068999E-16
  4.26302796E-03 -4.26302796E-03  6.39805246E-16 -3.00083493E-15 -5.34180117E-15
  2.42702546E-15  2.34515105E-01 -2.34515105E-01  4.32386620E-14  1.37630026E-14
  8.82065908E-02 -8.82065908E-02 -2.87211840E-12 -7.90212714E-13  9.53619283E-03
 -9.53619283E-03 -3.49164574E-15 -2.80164997E-15 -2.87302181E-15 -4.26302796E-03
  4.26302796E-03  6.63192409E-16  1.56715752E-01  9.72043878E-02 -1.56715752E-01
 -9.72043878E-02  1.56715752E-01  9.72043878E-02 -1.56715752E-01 -9.72043878E-02
  1.30020863E-02 -3.19745327E-02  4.15147846E-01  2.79972663E-15 -2.19376437E-15
  6.33109570E-03  1.39885277E-01  2.44170529E-15 -1.33319965E-15  1.80451920E-02
  3.14855291E-02 -1.21587729E-15  1.07417490E-15 -6.02859248E-03  9.49693246E-03
  9.49693246E-03 -3.84584666E-16  7.93757908E-16 -1.08689826E-02  1.30020863E-02
 -3.19745327E-02 -4.15147846E-01  5.39473569E-17  8.84844253E-16  6.33109570E-03
 -1.39885277E-01  2.69759582E-15 -6.20040743E-16  1.80451920E-02 -3.14855291E-02
  7.05129667E-17 -1.23677567E-15 -6.02859248E-03  9.49693246E-03  9.49693246E-03
  5.74603932E-16 -3.81941667E-16 -1.08689826E-02  1.25814805E-01  9.72211418E-02
  1.25814805E-01  9.72211418E-02  1.25814805E-01  9.72211418E-02  1.25814805E-01
  9.72211418E-02 -1.59785237E-15 -3.25295685E-15 -9.03442771E-16  2.19432396E-01
 -2.19432396E-01  3.73724761E-14 -1.28748639E-14  9.74061996E-02 -9.74061996E-02
 -5.17522795E-13  1.41277421E-13  3.07353812E-02 -3.07353812E-02  1.57075167E-15
 -1.62313368E-15 -1.09906846E-15  2.12444239E-02 -2.12444239E-02  2.80226856E-17
  2.07453743E-15  3.04706528E-15  3.11417650E-15 -2.19432396E-01  2.19432396E-01
 -3.53683767E-14 -1.75012917E-14 -9.74061996E-02  9.74061996E-02  5.32032036E-13
  1.47628589E-13 -3.07353812E-02  3.07353812E-02  7.17031001E-16  3.48134197E-16
  6.13391361E-16  2.12444239E-02 -2.12444239E-02 -2.38572078E-16  1.97166355E-01
  1.71813444E-01 -1.97166355E-01 -1.71813444E-01 -1.97166355E-01 -1.71813444E-01
  1.97166355E-01  1.71813444E-01  1.20056968E-15  1.71239982E-15 -2.16175308E-15
  2.84197422E-01  2.84197422E-01 -2.49708655E-14 -8.36782194E-15  1.79568950E-01
  1.79568950E-01 -6.13609654E-14  7.78120100E-15  3.87156473E-02  3.87156473E-02
  1.59602089E-15  1.11082940E-15  2.62520667E-15 -1.16234808E-02 -1.16234808E-02
  3.44659719E-16  8.25650730E-16  1.27270366E-15  2.36870968E-15  2.84197422E-01
  2.84197422E-01 -1.42224338E-14  6.26346684E-16  1.79568950E-01  1.79568950E-01
  6.60417607E-14  2.26403510E-14  3.87156473E-02  3.87156473E-02  9.63414967E-16
  7.12828226E-16  1.88567112E-15  1.16234808E-02  1.16234808E-02  1.69694205E-16
  1.50999673E-15  1.85290646E-14 -3.61512528E-15  1.26702513E-14 -8.48001152E-15
  2.89788267E-14  1.01187702E-14 -2.76740250E-14  9.73517541E-16 -1.29762868E-15
  1.26346161E-16  2.65725704E-01  2.65725704E-01 -9.65475890E-15  3.48133469E-15
  3.15143961E-01  3.15143961E-01  2.33862385E-13 -5.62287620E-14  5.28227485E-01
  5.28227485E-01  8.11458408E-16  1.45631559E-16  1.48552404E-15  1.71494045E-02
  1.71494045E-02  2.01174403E-16 -1.54462904E-15  4.68021641E-16 -6.49151161E-16
 -2.65725704E-01 -2.65725704E-01  2.52338481E-14 -3.47595826E-15 -3.15143961E-01
 -3.15143961E-01 -2.31788912E-13 -5.34048193E-14 -5.28227485E-01 -5.28227485E-01
 -1.12828704E-15 -5.68883375E-16 -1.56143807E-15  1.71494045E-02  1.71494045E-02
 -2.17909574E-16  9.68124617E-15  3.18235964E-13 -7.25777969E-15 -3.31461265E-13
 -4.43445945E-16 -5.26508187E-13 -2.74872325E-16  5.15413148E-13  5.10817264E-02
 -8.50848242E-02 -1.20582031E-01 -7.29765907E-15  1.28531335E-14 -5.16201189E-01
 -1.55349784E-01 -1.13161245E-13  1.11889403E-13  8.21976250E-01  4.27316534E-01
 -8.39370387E-14  7.89068678E-14  1.05036773E-04  6.77151125E-03  6.77151125E-03
  1.99534785E-16 -5.01546259E-16  8.80628923E-03  5.10817264E-02 -8.50848242E-02
  1.20582031E-01 -9.35595879E-15  1.26921444E-14 -5.16201189E-01  1.55349784E-01
  6.21375389E-14 -6.57735533E-14  8.21976253E-01 -4.27316533E-01  9.46484077E-14
 -1.10509942E-13  1.05036771E-04  6.77151125E-03  6.77151125E-03 -5.50561332E-16
  7.40109004E-16  8.80628922E-03 -4.18314132E-03 -1.10496807E-02 -4.18314132E-03
 -1.10496807E-02 -4.18314132E-03 -1.10496807E-02 -4.18314132E-03 -1.10496807E-02
 -5.11818213E-02  1.09793639E-01  5.00245202E-02 -4.20911117E-14  4.58358947E-14
  3.83955764E-01  6.86212586E-02  2.55334238E-14 -2.12469659E-14  9.62662925E+00
 -3.29110631E+00  1.63871586E-13 -1.30448306E-13 -1.15312514E-02  3.12778717E-03
  3.12778717E-03 -3.25546952E-16  9.59137047E-16 -7.09858817E-03  5.11818213E-02
 -1.09793639E-01  5.00245202E-02 -3.45956031E-14  3.03293243E-14 -3.83955764E-01
  6.86212586E-02 -2.54053775E-13  2.49130044E-13 -9.62662925E+00 -3.29110631E+00
 -1.41699933E-13  1.09806862E-13  1.15312514E-02 -3.12778717E-03 -3.12778717E-03
 -1.62009051E-15  2.20440480E-15  7.09858817E-03 -2.42155715E-03 -8.14667100E-02
 -2.42155715E-03 -8.14667100E-02  2.42155715E-03  8.14667100E-02  2.42155715E-03
  8.14667100E-02  2.86173936E-15 -1.11055563E-14  4.48247708E-15 -1.30156131E-01
  1.30156131E-01  4.26065695E-14  3.33499006E-14 -1.91055380E-01  1.91055380E-01
  1.94347616E-12 -4.47070708E-13  4.04672644E-01 -4.04672644E-01  2.19159745E-15
 -5.11221546E-16 -4.13202691E-16  2.32451012E-03 -2.32451012E-03  8.56216477E-16
 -1.42439007E-14  1.77660400E-14 -2.17889898E-14 -1.30156131E-01  1.30156131E-01
  1.72599463E-13 -6.12460420E-14 -1.91055380E-01  1.91055380E-01 -1.94642786E-12
 -4.12648785E-13  4.04672644E-01 -4.04672644E-01 -2.73108408E-15  8.26470679E-18
 -3.40628455E-16 -2.32451012E-03  2.32451012E-03 -1.46250408E-15  1.26782247E-02
  7.22420246E-02 -1.26782247E-02 -7.22420246E-02  1.26782247E-02  7.22420246E-02
 -1.26782247E-02 -7.22420246E-02 -6.23212190E-16  2.26865087E-16 -2.38342928E-15
 -1.11880947E-01 -1.11880947E-01  1.45025024E-14  4.13849052E-15 -1.67239827E-01
 -1.67239827E-01  1.42706168E-13  2.00003660E-14  4.26347820E-01  4.26347819E-01
 -3.82619881E-16 -1.02980287E-15 -1.34105583E-15  7.96558603E-03  7.96558603E-03
  3.06086907E-16 -1.14347542E-15  2.98602173E-16  1.80009951E-15 -1.11880947E-01
 -1.11880947E-01  2.13813139E-14 -6.60165402E-16 -1.67239827E-01 -1.67239827E-01
 -1.15163344E-13 -8.88019801E-14  4.26347819E-01  4.26347820E-01 -2.86554787E-16
 -1.07062105E-15 -1.27971908E-15 -7.96558603E-03 -7.96558603E-03  2.28475763E-16
  3.85681311E-14  1.18732512E-13 -4.01353091E-14 -1.40381002E-13  1.67841957E-13
  2.56760608E-12 -1.73231944E-13 -2.57925043E-12 -3.64096774E-02  4.13690348E-02
 -4.39823418E-02 -1.92370808E-13  1.91574666E-13  5.33557569E-01  4.94076306E-02
 -5.16215731E-14  5.86802059E-14 -7.15911800E-03  1.45221209E+00  2.85158405E-12
 -2.83384561E-12  1.10799935E-02 -1.85682478E-02 -1.85682478E-02 -1.39870599E-14
  1.29741425E-14  2.19736842E-03 -3.64096774E-02  4.13690348E-02  4.39823418E-02
  1.93089926E-13 -1.80321732E-13  5.33557568E-01 -4.94076306E-02  1.56037004E-14
  1.50046539E-14 -7.15911667E-03 -1.45221209E+00 -2.91089118E-12  2.83420706E-12
  1.10799935E-02 -1.85682478E-02 -1.85682478E-02 -1.37378376E-14  1.44208235E-14
  2.19736842E-03 -2.08731606E-02 -9.04108753E-02 -2.08731606E-02 -9.04108753E-02
 -2.08731606E-02 -9.04108753E-02 -2.08731606E-02 -9.04108753E-02  6.34476464E-14
 -7.71269158E-14  8.68013284E-14 -1.08893851E-01  1.08893851E-01 -8.68331320E-13
  1.62780932E-14 -6.52591519E-02  6.52591519E-02  3.83197343E-12 -3.54409553E-12
  1.58453716E+00 -1.58453716E+00 -2.16412748E-14  3.32185708E-14  3.30492419E-14
 -7.96269461E-03  7.96269461E-03 -1.76472215E-15  5.50087475E-14 -7.85836987E-14
 -9.29005295E-14  1.08893851E-01 -1.08893851E-01 -7.23561337E-13  4.99604265E-14
  6.52591519E-02 -6.52591519E-02 -3.61858563E-12  1.58048599E-12 -1.58453716E+00
  1.58453716E+00 -2.15215769E-14  3.18971603E-14  3.12164158E-14 -7.96269461E-03
  7.96269461E-03 -2.79313693E-15 -1.74960282E-02 -1.71448432E-01  1.74960282E-02
  1.71448432E-01  1.74960282E-02  1.71448432E-01 -1.74960282E-02 -1.71448432E-01
 -1.38284071E-14  7.05111567E-15  2.32515502E-14 -1.88049640E-01 -1.88049640E-01
  2.65924032E-13  1.41170993E-13 -3.39577845E-01 -3.39577845E-01 -9.86224416E-13
  2.96832442E-13  1.40641645E+00  1.40641645E+00 -3.96206993E-15 -2.82786103E-15
 -3.65771879E-15 -6.44202182E-03 -6.44202182E-03  1.91010628E-15  2.81188851E-15
 -4.11219705E-15 -6.76080741E-15  1.88049640E-01  1.88049640E-01  6.01942734E-15
 -1.95525440E-15  3.39577845E-01  3.39577845E-01  1.13071811E-12  3.68362707E-13
 -1.40641645E+00 -1.40641645E+00  1.72251088E-15  1.13237446E-15  1.74236909E-15
 -6.44202182E-03 -6.44202182E-03  1.81201178E-15 -1.52952131E-13 -3.12385477E-13
  1.28669248E-13 -1.91743520E-13 -3.14237128E-14 -2.07909423E-12  3.43059268E-14
  2.03220797E-12  5.59946774E-02 -8.19098475E-02 -8.92160992E-02 -4.56675789E-13
  4.39095713E-13 -5.69130732E-01 -4.25148714E-01 -9.67285327E-13  9.04248515E-13
  3.44833022E+01 -9.45806894E+00 -5.11025587E-13  6.99267927E-13  7.19653940E-03
  7.78079613E-03  7.78079613E-03  7.40534742E-14 -7.44670486E-14  2.83483521E-03
 -5.59946774E-02  8.19098475E-02 -8.92160992E-02 -4.87300876E-13  5.11736249E-13
  5.69130732E-01 -4.25148714E-01 -2.51654735E-12  2.56868007E-12 -3.44833022E+01
 -9.45806894E+00 -1.58232876E-12  1.39760860E-12 -7.19653940E-03 -7.78079614E-03
 -7.78079614E-03 -7.72874187E-14  7.62308289E-14 -2.83483520E-03  4.78133882E-02
  1.50577371E-01  4.78133882E-02  1.50577371E-01 -4.78133882E-02 -1.50577371E-01
 -4.78133882E-02 -1.50577371E-01 -5.98890521E-02  4.56203862E-02  1.63517077E-01
 -3.60857827E-14  7.85521463E-14  1.28813079E+00  6.42446782E-01 -5.06592154E-13
  5.79698041E-13  6.57724039E-01 -9.91958262E-02 -7.00376374E-13  3.94726546E-13
 -3.55443017E-03 -6.10641913E-03 -6.10641913E-03  1.40177603E-14 -1.27082597E-14
  2.50323411E-02 -5.98890521E-02  4.56203862E-02 -1.63517077E-01 -7.69866959E-14
  5.40445279E-14  1.28813079E+00 -6.42446782E-01 -1.98660963E-14 -5.90016546E-14
  6.57724040E-01  9.91958264E-02  3.31419750E-13 -2.67436049E-14 -3.55443017E-03
 -6.10641913E-03 -6.10641913E-03 -1.04907615E-14  1.21594558E-14  2.50323411E-02
 -1.00314226E-01 -1.23774426E+00 -1.00314226E-01 -1.23774426E+00 -1.00314226E-01
 -1.23774426E+00 -1.00314226E-01 -1.23774426E+00 -2.27296490E-13  3.75639829E-13
  3.51446438E-13 -1.58988884E-01  1.58988884E-01  2.41178944E-12  1.65168317E-12
 -5.15680926E-01  5.15680926E-01 -8.64459749E-11  2.44052245E-11 -3.19865499E-01
  3.19865499E-01 -1.43051375E-14 -2.72252742E-14 -2.46386124E-14  2.90553313E-02
 -2.90553313E-02 -8.28594646E-15  2.89957047E-13 -4.68094664E-13  4.81013807E-13
 -1.58988884E-01  1.58988884E-01 -3.66508451E-12  2.33668678E-12 -5.15680926E-01
  5.15680926E-01  8.57626531E-11  2.44028230E-11 -3.19865499E-01  3.19865499E-01
  1.18161490E-14  4.21861209E-14  3.82815125E-14 -2.90553313E-02  2.90553313E-02
 -2.29147328E-14  1.38845032E-01  1.17409684E+00 -1.38845032E-01 -1.17409684E+00
  1.38845032E-01  1.17409684E+00 -1.38845032E-01 -1.17409684E+00 -7.67443700E-02
  9.79905212E-02  7.69716927E-02  2.69787617E-13 -2.30238644E-13  1.26024054E+00
  4.32514385E-01  8.96865152E-13 -8.70367474E-13  2.10439871E+01 -5.22205760E+00
  4.83542903E-13 -6.57132214E-13 -7.49782672E-03 -3.96182329E-03 -3.96182329E-03
 -4.44539519E-14  4.82979265E-14  1.60106219E-02  7.67443700E-02 -9.79905212E-02
  7.69716927E-02  1.88888975E-13 -2.28580223E-13 -1.26024054E+00  4.32514385E-01
  2.59551159E-13 -2.81791767E-13 -2.10439871E+01 -5.22205760E+00  3.13873785E-13
 -1.39716323E-13  7.49782672E-03  3.96182329E-03  3.96182329E-03  4.62838613E-14
 -4.49148542E-14 -1.60106219E-02 -1.22854841E-01 -1.40635894E+00 -1.22854841E-01
 -1.40635894E+00  1.22854841E-01  1.40635894E+00  1.22854841E-01  1.40635894E+00
 -6.23304976E-13  4.68821840E-13 -1.47039380E-12 -2.67967120E-01  2.67967120E-01
  2.05987453E-11 -1.67467215E-11 -1.29372291E+00  1.29372291E+00 -2.25180552E-11
  7.78947013E-12 -1.31113479E+00  1.31113479E+00 -1.79757368E-13  4.93588828E-14
  5.17055504E-14 -9.99315604E-03  9.99315604E-03 -9.37975419E-14  6.34221183E-13
 -4.08806371E-13 -1.32347746E-12  2.67967120E-01 -2.67967120E-01 -2.07851293E-11
 -1.68203094E-11  1.29372291E+00 -1.29372291E+00  2.23096970E-11  7.82124211E-12
  1.31113479E+00 -1.31113479E+00  1.96551864E-13 -8.65350776E-14 -7.67017718E-14
 -9.99315604E-03  9.99315604E-03  8.09955076E-14  2.83081149E-02  1.90510036E+00
 -2.83081149E-02 -1.90510036E+00 -2.83081149E-02 -1.90510036E+00  2.83081149E-02
  1.90510036E+00  1.02496691E-01 -9.31729744E-02  2.23622139E-01 -1.66729344E-12
  1.67634938E-12 -3.29250237E+00  2.69469414E+00 -7.79422413E-12  7.78573546E-12
  6.00936661E+00 -1.90884763E+00 -8.02522959E-12  8.02178068E-12  3.24875928E-02
 -1.06602541E-02 -1.06602541E-02 -6.43437334E-14  6.51309215E-14  1.47159392E-02
 -1.02496691E-01  9.31729744E-02  2.23622139E-01  1.69133681E-12 -1.69713598E-12
  3.29250237E+00  2.69469414E+00  7.81815143E-12 -7.81176618E-12 -6.00936661E+00
 -1.90884763E+00  8.06502284E-12 -8.06073861E-12 -3.24875928E-02  1.06602541E-02
  1.06602541E-02 -6.14145474E-14  6.17362280E-14 -1.47159392E-02 -2.65675653E-02
 -2.38376108E-01 -2.65675653E-02 -2.38376108E-01  2.65675653E-02  2.38376108E-01
  2.65675653E-02  2.38376108E-01  2.82425175E-02  5.69155923E-02 -6.08878973E-01
  5.94083053E-14 -1.79534883E-14  4.23434209E-01  1.23450564E+00 -6.51615742E-14
  1.67619399E-14 -1.05186407E-01 -7.58983780E-01  7.17116250E-14 -5.90334611E-14
  7.49368869E-02 -3.53701633E-02 -3.53701633E-02  5.35500307E-15 -7.39147374E-15
  2.93883234E-02  2.82425175E-02  5.69155923E-02  6.08878973E-01 -8.89242323E-14
  1.12060586E-13  4.23434209E-01 -1.23450564E+00  9.36543290E-14 -1.17515508E-13
 -1.05186407E-01  7.58983780E-01 -7.56580810E-14  8.98673410E-14  7.49368869E-02
 -3.53701633E-02 -3.53701633E-02 -1.59078222E-15  3.98121680E-15  2.93883234E-02