 Entering Gaussian System, Link 0=g09
 Input=B_45.gjf
 Output=B_45.log
 Initial command:
 /opt/share/GAUSSIAN/v09-D.01.app/g09/l1.exe "/tmp/Gau-24811.inp" -scrdir="/tmp/"
 Entering Link 1 = /opt/share/GAUSSIAN/v09-D.01.app/g09/l1.exe PID=     24812.
  
 Copyright (c) 1988,1990,1992,1993,1995,1998,2003,2009,2013,
            Gaussian, Inc.  All Rights Reserved.
  
 This is part of the Gaussian(R) 09 program.  It is based on
 the Gaussian(R) 03 system (copyright 2003, Gaussian, Inc.),
 the Gaussian(R) 98 system (copyright 1998, Gaussian, Inc.),
 the Gaussian(R) 94 system (copyright 1995, Gaussian, Inc.),
 the Gaussian 92(TM) system (copyright 1992, Gaussian, Inc.),
 the Gaussian 90(TM) system (copyright 1990, Gaussian, Inc.),
 the Gaussian 88(TM) system (copyright 1988, Gaussian, Inc.),
 the Gaussian 86(TM) system (copyright 1986, Carnegie Mellon
 University), and the Gaussian 82(TM) system (copyright 1983,
 Carnegie Mellon University). Gaussian is a federally registered
 trademark of Gaussian, Inc.
  
 This software contains proprietary and confidential information,
 including trade secrets, belonging to Gaussian, Inc.
  
 This software is provided under written license and may be
 used, copied, transmitted, or stored only in accord with that
 written license.
  
 The following legend is applicable only to US Government
 contracts under FAR:
  
                    RESTRICTED RIGHTS LEGEND
  
 Use, reproduction and disclosure by the US Government is
 subject to restrictions as set forth in subparagraphs (a)
 and (c) of the Commercial Computer Software - Restricted
 Rights clause in FAR 52.227-19.
  
 Gaussian, Inc.
 340 Quinnipiac St., Bldg. 40, Wallingford CT 06492
  
  
 ---------------------------------------------------------------
 Warning -- This program may not be used in any manner that
 competes with the business of Gaussian, Inc. or will provide
 assistance to any competitor of Gaussian, Inc.  The licensee
 of this program is prohibited from giving any competitor of
 Gaussian, Inc. access to this program.  By using this program,
 the user acknowledges that Gaussian, Inc. is engaged in the
 business of creating and licensing software in the field of
 computational chemistry and represents and warrants to the
 licensee that it is not a competitor of Gaussian, Inc. and that
 it will not use this program in any manner prohibited above.
 ---------------------------------------------------------------
  

 Cite this work as:
 Gaussian 09, Revision D.01,
 M. J. Frisch, G. W. Trucks, H. B. Schlegel, G. E. Scuseria, 
 M. A. Robb, J. R. Cheeseman, G. Scalmani, V. Barone, B. Mennucci, 
 G. A. Petersson, H. Nakatsuji, M. Caricato, X. Li, H. P. Hratchian, 
 A. F. Izmaylov, J. Bloino, G. Zheng, J. L. Sonnenberg, M. Hada, 
 M. Ehara, K. Toyota, R. Fukuda, J. Hasegawa, M. Ishida, T. Nakajima, 
 Y. Honda, O. Kitao, H. Nakai, T. Vreven, J. A. Montgomery, Jr., 
 J. E. Peralta, F. Ogliaro, M. Bearpark, J. J. Heyd, E. Brothers, 
 K. N. Kudin, V. N. Staroverov, T. Keith, R. Kobayashi, J. Normand, 
 K. Raghavachari, A. Rendell, J. C. Burant, S. S. Iyengar, J. Tomasi, 
 M. Cossi, N. Rega, J. M. Millam, M. Klene, J. E. Knox, J. B. Cross, 
 V. Bakken, C. Adamo, J. Jaramillo, R. Gomperts, R. E. Stratmann, 
 O. Yazyev, A. J. Austin, R. Cammi, C. Pomelli, J. W. Ochterski, 
 R. L. Martin, K. Morokuma, V. G. Zakrzewski, G. A. Voth, 
 P. Salvador, J. J. Dannenberg, S. Dapprich, A. D. Daniels, 
 O. Farkas, J. B. Foresman, J. V. Ortiz, J. Cioslowski, 
 and D. J. Fox, Gaussian, Inc., Wallingford CT, 2013.
 
 ******************************************
 Gaussian 09:  ES64L-G09RevD.01 24-Apr-2013
                18-Sep-2016 
 ******************************************
 % mem=4GB
 % nprocshared=4
 Will use up to    4 processors via shared memory.
 % chk=B_45.chk
 ----------------------------------------------
 # B3LYP/6-31+G* int=ultrafine nosymm punch(mo)
 ----------------------------------------------
 1/38=1/1;
 2/12=2,15=1,17=6,18=5,40=1/2;
 3/5=1,6=6,7=11,11=2,16=1,25=1,30=1,74=-5,75=-5/1,2,3;
 4//1;
 5/5=2,38=5/2;
 6/7=2,8=2,9=2,10=2,28=1/1;
 99/5=1,9=1,10=32/99;
 ----
 B_45
 ----
 Symbolic Z-matrix:
 Charge =  0 Multiplicity = 1
 C                     0.67275   0.        5. 
 C                    -0.67275   0.        5. 
 H                     1.24262   0.66101   4.33899 
 H                     1.24262  -0.66101   5.66101 
 H                    -1.24262   0.66101   4.33899 
 H                    -1.24262  -0.66101   5.66101 
 
                          Input orientation:                          
 ---------------------------------------------------------------------
 Center     Atomic      Atomic             Coordinates (Angstroms)
 Number     Number       Type             X           Y           Z
 ---------------------------------------------------------------------
      1          6           0        0.672749    0.000000    5.000000
      2          6           0       -0.672749    0.000000    5.000000
      3          1           0        1.242623    0.661008    4.338992
      4          1           0        1.242623   -0.661008    5.661008
      5          1           0       -1.242623    0.661008    4.338992
      6          1           0       -1.242623   -0.661008    5.661008
 ---------------------------------------------------------------------
                    Distance matrix (angstroms):
                    1          2          3          4          5
     1  C    0.000000
     2  C    1.345498   0.000000
     3  H    1.094815   2.131317   0.000000
     4  H    1.094815   2.131317   1.869613   0.000000
     5  H    2.131317   1.094815   2.485246   3.109968   0.000000
     6  H    2.131317   1.094815   3.109968   2.485246   1.869613
                    6
     6  H    0.000000
 Symmetry turned off by external request.
 Stoichiometry    C2H4
 Framework group  D2H[C2"(C.C),SG(H4)]
 Deg. of freedom     3
 Full point group                 D2H     NOp   8
 Rotational constants (GHZ):    143.4592759     29.5768688     24.5213287
 Standard basis: 6-31+G(d) (6D, 7F)
    46 basis functions,    80 primitive gaussians,    46 cartesian basis functions
     8 alpha electrons        8 beta electrons
       nuclear repulsion energy        33.0500973052 Hartrees.
 NAtoms=    6 NActive=    6 NUniq=    6 SFac= 1.00D+00 NAtFMM=   60 NAOKFM=F Big=F
 Integral buffers will be    131072 words long.
 Raffenetti 2 integral format.
 Two-electron integral symmetry is turned off.
 One-electron integrals computed using PRISM.
 NBasis=    46 RedAO= T EigKep=  2.30D-04  NBF=    46
 NBsUse=    46 1.00D-06 EigRej= -1.00D+00 NBFU=    46
 ExpMin= 4.38D-02 ExpMax= 3.05D+03 ExpMxC= 4.57D+02 IAcc=3 IRadAn=         5 AccDes= 0.00D+00
 Harris functional with IExCor=  402 and IRadAn=       5 diagonalized for initial guess.
 HarFok:  IExCor=  402 AccDes= 0.00D+00 IRadAn=         5 IDoV= 1 UseB2=F ITyADJ=14
 ICtDFT=  3500011 ScaDFX=  1.000000  1.000000  1.000000  1.000000
 FoFCou: FMM=F IPFlag=           0 FMFlag=      100000 FMFlg1=           0
         NFxFlg=           0 DoJE=T BraDBF=F KetDBF=T FulRan=T
         wScrn=  0.000000 ICntrl=     500 IOpCl=  0 I1Cent=   200000004 NGrid=           0
         NMat0=    1 NMatS0=      1 NMatT0=    0 NMatD0=    1 NMtDS0=    0 NMtDT0=    0
 Symmetry not used in FoFCou.
 Keep R1 ints in memory in canonical form, NReq=1477657.
 Requested convergence on RMS density matrix=1.00D-08 within 128 cycles.
 Requested convergence on MAX density matrix=1.00D-06.
 Requested convergence on             energy=1.00D-06.
 No special actions if energy rises.
 SCF Done:  E(RB3LYP) =  -78.5929849005     A.U. after    8 cycles
            NFock=  8  Conv=0.11D-08     -V/T= 2.0119

 **********************************************************************

            Population analysis using the SCF density.

 **********************************************************************

 Alpha  occ. eigenvalues --  -10.19871 -10.19790  -0.76206  -0.58448  -0.47268
 Alpha  occ. eigenvalues --   -0.42267  -0.36322  -0.27596
 Alpha virt. eigenvalues --   -0.00988   0.02502   0.03257   0.04671   0.06958
 Alpha virt. eigenvalues --    0.08673   0.08745   0.12751   0.15668   0.17643
 Alpha virt. eigenvalues --    0.19040   0.24303   0.34233   0.34755   0.57994
 Alpha virt. eigenvalues --    0.65785   0.67469   0.71917   0.75677   0.81962
 Alpha virt. eigenvalues --    0.89952   0.93643   0.96324   1.00218   1.16204
 Alpha virt. eigenvalues --    1.21969   1.44780   1.53897   1.81652   1.88524
 Alpha virt. eigenvalues --    1.99937   2.10769   2.29200   2.37010   2.66502
 Alpha virt. eigenvalues --    2.70046   4.11590   4.25146
          Condensed to atoms (all electrons):
               1          2          3          4          5          6
     1  C    5.006789   0.666588   0.382559   0.382559  -0.036202  -0.036202
     2  C    0.666588   5.006789  -0.036202  -0.036202   0.382559   0.382559
     3  H    0.382559  -0.036202   0.506603  -0.033237  -0.006694   0.003928
     4  H    0.382559  -0.036202  -0.033237   0.506603   0.003928  -0.006694
     5  H   -0.036202   0.382559  -0.006694   0.003928   0.506603  -0.033237
     6  H   -0.036202   0.382559   0.003928  -0.006694  -0.033237   0.506603
 Mulliken charges:
               1
     1  C   -0.366090
     2  C   -0.366090
     3  H    0.183045
     4  H    0.183045
     5  H    0.183045
     6  H    0.183045
 Sum of Mulliken charges =   0.00000
 Mulliken charges with hydrogens summed into heavy atoms:
               1
     1  C    0.000000
     2  C    0.000000
 Electronic spatial extent (au):  <R**2>=           1512.8230
 Charge=              0.0000 electrons
 Dipole moment (field-independent basis, Debye):
    X=              0.0000    Y=              0.0000    Z=              0.0000  Tot=              0.0000
 Quadrupole moment (field-independent basis, Debye-Ang):
   XX=            -12.4310   YY=            -14.2716   ZZ=            -14.2716
   XY=              0.0000   XZ=              0.0000   YZ=             -1.8648
 Traceless Quadrupole moment (field-independent basis, Debye-Ang):
   XX=              1.2270   YY=             -0.6135   ZZ=             -0.6135
   XY=              0.0000   XZ=              0.0000   YZ=             -1.8648
 Octapole moment (field-independent basis, Debye-Ang**2):
  XXX=              0.0000  YYY=              0.0000  ZZZ=           -214.0735  XYY=              0.0000
  XXY=              0.0000  XXZ=            -62.1550  XZZ=              0.0000  YZZ=            -18.6477
  YYZ=            -71.3578  XYZ=              0.0000
 Hexadecapole moment (field-independent basis, Debye-Ang**3):
 XXXX=            -71.8899 YYYY=            -26.6181 ZZZZ=          -2167.3529 XXXY=              0.0000
 XXXZ=              0.0000 YYYX=              0.0000 YYYZ=              1.5221 ZZZX=              0.0000
 ZZZY=           -138.3354 XXYY=            -15.5359 XXZZ=           -326.3106 YYZZ=           -365.0199
 XXYZ=             -1.2889 YYXZ=              0.0000 ZZXY=              0.0000
 N-N= 3.305009730515D+01 E-N=-2.472640489375D+02  KE= 7.767045114214D+01
 1\1\GINC-RSWPRH01\SP\RB3LYP\6-31+G(d)\C2H4\ROOT\18-Sep-2016\0\\# B3LYP
 /6-31+G* int=ultrafine nosymm punch(mo)\\B_45\\0,1\C,0,0.672749,0.,5.\
 C,0,-0.672749,0.,5.\H,0,1.242623,0.661008,4.338992\H,0,1.242623,-0.661
 008,5.661008\H,0,-1.242623,0.661008,4.338992\H,0,-1.242623,-0.661008,5
 .661008\\Version=ES64L-G09RevD.01\HF=-78.5929849\RMSD=1.139e-09\Dipole
 =0.,0.,0.\Quadrupole=0.9122814,-0.4561407,-0.4561407,0.,0.,-1.3864081\
 PG=D02H [C2"(C1.C1),SG(H4)]\\@


 I DON'T EXACTLY UNDERSTAND WHAT YOU ARE SAYING,
 BUT YOU ARE ABSOLUTELY RIGHT.
     M.S.GORDON, IN A NDSU FACULTY MEETING
 Job cpu time:       0 days  0 hours  0 minutes  7.6 seconds.
 File lengths (MBytes):  RWF=      5 Int=      0 D2E=      0 Chk=      1 Scr=      1
 Normal termination of Gaussian 09 at Sun Sep 18 08:53:29 2016.
