B_75                                                                    
SP        RB3LYP                                                      6-31+G(d)           
Number of atoms                            I                6
Info1-9                                    I   N=           9
          15          15           0           0           0         110
           1          18        -502
Charge                                     I                0
Multiplicity                               I                1
Number of electrons                        I               16
Number of alpha electrons                  I                8
Number of beta electrons                   I                8
Number of basis functions                  I               46
Number of independent functions            I               46
Number of point charges in /Mol/           I                0
Number of translation vectors              I                0
Atomic numbers                             I   N=           6
           6           6           1           1           1           1
Nuclear charges                            R   N=           6
  6.00000000E+00  6.00000000E+00  1.00000000E+00  1.00000000E+00  1.00000000E+00
  1.00000000E+00
Current cartesian coordinates              R   N=          18
  1.27131137E+00  0.00000000E+00  9.44863066E+00 -1.27131137E+00  0.00000000E+00
  9.44863066E+00  2.34821716E+00  4.57211679E-01  7.74229678E+00  2.34821716E+00
 -4.57211679E-01  1.11549645E+01 -2.34821716E+00  4.57211679E-01  7.74229678E+00
 -2.34821716E+00 -4.57211679E-01  1.11549645E+01
Force Field                                I                0
Int Atom Types                             I   N=           6
           0           0           0           0           0           0
MM charges                                 R   N=           6
  0.00000000E+00  0.00000000E+00  0.00000000E+00  0.00000000E+00  0.00000000E+00
  0.00000000E+00
Integer atomic weights                     I   N=           6
          12          12           1           1           1           1
Real atomic weights                        R   N=           6
  1.20000000E+01  1.20000000E+01  1.00782504E+00  1.00782504E+00  1.00782504E+00
  1.00782504E+00
Atom fragment info                         I   N=           6
           0           0           0           0           0           0
Atom residue num                           I   N=           6
           0           0           0           0           0           0
Nuclear spins                              I   N=           6
           0           0           1           1           1           1
Nuclear ZEff                               R   N=           6
 -3.60000000E+00 -3.60000000E+00 -1.00000000E+00 -1.00000000E+00 -1.00000000E+00
 -1.00000000E+00
Nuclear ZNuc                               R   N=           6
  6.00000000E+00  6.00000000E+00  1.00000000E+00  1.00000000E+00  1.00000000E+00
  1.00000000E+00
Nuclear QMom                               R   N=           6
  0.00000000E+00  0.00000000E+00  0.00000000E+00  0.00000000E+00  0.00000000E+00
  0.00000000E+00
Nuclear GFac                               R   N=           6
  0.00000000E+00  0.00000000E+00  2.79284600E+00  2.79284600E+00  2.79284600E+00
  2.79284600E+00
MicOpt                                     I   N=           6
          -1          -1          -1          -1          -1          -1
Number of contracted shells                I               18
Number of primitive shells                 I               40
Pure/Cartesian d shells                    I                1
Pure/Cartesian f shells                    I                0
Highest angular momentum                   I                2
Largest degree of contraction              I                6
Shell types                                I   N=          18
           0          -1          -1          -1           2           0
          -1          -1          -1           2           0           0
           0           0           0           0           0           0
Number of primitives per shell             I   N=          18
           6           3           1           1           1           6
           3           1           1           1           3           1
           3           1           3           1           3           1
Shell to atom map                          I   N=          18
           1           1           1           1           1           2
           2           2           2           2           3           3
           4           4           5           5           6           6
Primitive exponents                        R   N=          40
  3.04752488E+03  4.57369518E+02  1.03948685E+02  2.92101553E+01  9.28666296E+00
  3.16392696E+00  7.86827235E+00  1.88128854E+00  5.44249258E-01  1.68714478E-01
  4.38000000E-02  8.00000000E-01  3.04752488E+03  4.57369518E+02  1.03948685E+02
  2.92101553E+01  9.28666296E+00  3.16392696E+00  7.86827235E+00  1.88128854E+00
  5.44249258E-01  1.68714478E-01  4.38000000E-02  8.00000000E-01  1.87311370E+01
  2.82539436E+00  6.40121692E-01  1.61277759E-01  1.87311370E+01  2.82539436E+00
  6.40121692E-01  1.61277759E-01  1.87311370E+01  2.82539436E+00  6.40121692E-01
  1.61277759E-01  1.87311370E+01  2.82539436E+00  6.40121692E-01  1.61277759E-01
Contraction coefficients                   R   N=          40
  1.83473713E-03  1.40373228E-02  6.88426223E-02  2.32184443E-01  4.67941348E-01
  3.62311985E-01 -1.19332420E-01 -1.60854152E-01  1.14345644E+00  1.00000000E+00
  1.00000000E+00  1.00000000E+00  1.83473713E-03  1.40373228E-02  6.88426223E-02
  2.32184443E-01  4.67941348E-01  3.62311985E-01 -1.19332420E-01 -1.60854152E-01
  1.14345644E+00  1.00000000E+00  1.00000000E+00  1.00000000E+00  3.34946043E-02
  2.34726953E-01  8.13757326E-01  1.00000000E+00  3.34946043E-02  2.34726953E-01
  8.13757326E-01  1.00000000E+00  3.34946043E-02  2.34726953E-01  8.13757326E-01
  1.00000000E+00  3.34946043E-02  2.34726953E-01  8.13757326E-01  1.00000000E+00
P(S=P) Contraction coefficients            R   N=          40
  0.00000000E+00  0.00000000E+00  0.00000000E+00  0.00000000E+00  0.00000000E+00
  0.00000000E+00  6.89990666E-02  3.16423961E-01  7.44308291E-01  1.00000000E+00
  1.00000000E+00  0.00000000E+00  0.00000000E+00  0.00000000E+00  0.00000000E+00
  0.00000000E+00  0.00000000E+00  0.00000000E+00  6.89990666E-02  3.16423961E-01
  7.44308291E-01  1.00000000E+00  1.00000000E+00  0.00000000E+00  0.00000000E+00
  0.00000000E+00  0.00000000E+00  0.00000000E+00  0.00000000E+00  0.00000000E+00
  0.00000000E+00  0.00000000E+00  0.00000000E+00  0.00000000E+00  0.00000000E+00
  0.00000000E+00  0.00000000E+00  0.00000000E+00  0.00000000E+00  0.00000000E+00
Coordinates of each shell                  R   N=          54
  1.27131137E+00  0.00000000E+00  9.44863066E+00  1.27131137E+00  0.00000000E+00
  9.44863066E+00  1.27131137E+00  0.00000000E+00  9.44863066E+00  1.27131137E+00
  0.00000000E+00  9.44863066E+00  1.27131137E+00  0.00000000E+00  9.44863066E+00
 -1.27131137E+00  0.00000000E+00  9.44863066E+00 -1.27131137E+00  0.00000000E+00
  9.44863066E+00 -1.27131137E+00  0.00000000E+00  9.44863066E+00 -1.27131137E+00
  0.00000000E+00  9.44863066E+00 -1.27131137E+00  0.00000000E+00  9.44863066E+00
  2.34821716E+00  4.57211679E-01  7.74229678E+00  2.34821716E+00  4.57211679E-01
  7.74229678E+00  2.34821716E+00 -4.57211679E-01  1.11549645E+01  2.34821716E+00
 -4.57211679E-01  1.11549645E+01 -2.34821716E+00  4.57211679E-01  7.74229678E+00
 -2.34821716E+00  4.57211679E-01  7.74229678E+00 -2.34821716E+00 -4.57211679E-01
  1.11549645E+01 -2.34821716E+00 -4.57211679E-01  1.11549645E+01
Constraint Structure                       R   N=          18
  1.27131137E+00  0.00000000E+00  9.44863066E+00 -1.27131137E+00  0.00000000E+00
  9.44863066E+00  2.34821716E+00  4.57211679E-01  7.74229678E+00  2.34821716E+00
 -4.57211679E-01  1.11549645E+01 -2.34821716E+00  4.57211679E-01  7.74229678E+00
 -2.34821716E+00 -4.57211679E-01  1.11549645E+01
Num ILSW                                   I              100
ILSW                                       I   N=         100
           0           1           0           0           2           0
           0           0           0           0         402          -1
           5           0           0           0           0           0
           0           0           1           0           0           0
           1           1           0           0           0           0
           0           0      100000           0          -1           0
           0           0           0           0           0           0
           0           0           0           1           0           0
           0           0           1           0           0           0
           0           0           4          41           0           0
           0           0           5           0           0           0
           0           0           0           0           0           0
           0           0           0           0           0           0
           0           0           0           0           0           0
           0           0           0           0           0           0
           0           0           0           0           0           0
           0           0           0           0
Num RLSW                                   I               41
RLSW                                       R   N=          41
  8.00000000E-01  7.20000000E-01  1.00000000E+00  8.10000000E-01  2.00000000E-01
  0.00000000E+00  0.00000000E+00  1.00000000E+00  0.00000000E+00  0.00000000E+00
  0.00000000E+00  0.00000000E+00  1.00000000E+00  0.00000000E+00  0.00000000E+00
  0.00000000E+00  0.00000000E+00  1.00000000E+00  0.00000000E+00  0.00000000E+00
  0.00000000E+00  0.00000000E+00  1.00000000E+00  0.00000000E+00  0.00000000E+00
  0.00000000E+00  0.00000000E+00  1.00000000E+00  0.00000000E+00  0.00000000E+00
  0.00000000E+00  0.00000000E+00  1.00000000E+00  0.00000000E+00  0.00000000E+00
  0.00000000E+00  0.00000000E+00  0.00000000E+00  1.00000000E+00  1.00000000E+00
  0.00000000E+00
MxBond                                     I                3
NBond                                      I   N=           6
           3           3           1           1           1           1
IBond                                      I   N=          18
           2           3           4           1           5           6
           1           0           0           1           0           0
           2           0           0           2           0           0
RBond                                      R   N=          18
  2.00000000E+00  1.00000000E+00  1.00000000E+00  2.00000000E+00  1.00000000E+00
  1.00000000E+00  1.00000000E+00  0.00000000E+00  0.00000000E+00  1.00000000E+00
  0.00000000E+00  0.00000000E+00  1.00000000E+00  0.00000000E+00  0.00000000E+00
  1.00000000E+00  0.00000000E+00  0.00000000E+00
Virial Ratio                               R      2.011877521143124E+00
SCF Energy                                 R     -7.859298515674409E+01
Total Energy                               R     -7.859298515674409E+01
RMS Density                                R      1.139359422916881E-09
External E-field                           R   N=          35
  0.00000000E+00  0.00000000E+00  0.00000000E+00  0.00000000E+00  0.00000000E+00
  0.00000000E+00  0.00000000E+00  0.00000000E+00  0.00000000E+00  0.00000000E+00
  0.00000000E+00  0.00000000E+00  0.00000000E+00  0.00000000E+00  0.00000000E+00
  0.00000000E+00  0.00000000E+00  0.00000000E+00  0.00000000E+00  0.00000000E+00
  0.00000000E+00  0.00000000E+00  0.00000000E+00  0.00000000E+00  0.00000000E+00
  0.00000000E+00  0.00000000E+00  0.00000000E+00  0.00000000E+00  0.00000000E+00
  0.00000000E+00  0.00000000E+00  0.00000000E+00  0.00000000E+00  0.00000000E+00
IOpCl                                      I                0
IROHF                                      I                0
Alpha Orbital Energies                     R   N=          46
 -1.01987071E+01 -1.01979008E+01 -7.62055660E-01 -5.84478241E-01 -4.72680564E-01
 -4.22674133E-01 -3.63216538E-01 -2.75957110E-01 -9.87613726E-03  2.50211309E-02
  3.25740576E-02  4.67129794E-02  6.95726654E-02  8.67318427E-02  8.74547720E-02
  1.27516506E-01  1.56680446E-01  1.76424843E-01  1.90396765E-01  2.43026934E-01
  3.42326203E-01  3.47549330E-01  5.79938278E-01  6.57848376E-01  6.74690217E-01
  7.19168527E-01  7.56765256E-01  8.19623756E-01  8.99524129E-01  9.36430621E-01
  9.63238741E-01  1.00218309E+00  1.16203646E+00  1.21969390E+00  1.44779490E+00
  1.53897344E+00  1.81652161E+00  1.88523511E+00  1.99937239E+00  2.10768497E+00
  2.29199596E+00  2.37010266E+00  2.66501849E+00  2.70045693E+00  4.11589486E+00
  4.25146459E+00
Alpha MO coefficients                      R   N=        2116
  7.01848322E-01  3.45111733E-02  1.76544614E-04 -2.16798558E-16  9.75076171E-16
 -6.26439196E-03 -2.86417428E-04  7.09108054E-16 -5.24704685E-15  6.06911060E-04
 -7.56114432E-04  4.66342391E-16  2.99378191E-15 -6.66403554E-03 -6.88172365E-03
 -6.70391921E-03 -2.51721525E-18  1.41456376E-16 -5.92677543E-05  7.01848322E-01
  3.45111732E-02 -1.76544614E-04 -4.76577248E-16  1.24979433E-15 -6.26439195E-03
  2.86417429E-04  1.69336982E-15 -5.23208684E-15  6.06911049E-04  7.56114430E-04
  5.71403670E-16 -6.84992392E-15 -6.66403553E-03 -6.88172365E-03 -6.70391921E-03
 -7.65682158E-17  7.18771168E-16 -5.92677542E-05 -2.01446765E-04  1.01249292E-03
 -2.01446765E-04  1.01249292E-03 -2.01446765E-04  1.01249292E-03 -2.01446765E-04
  1.01249292E-03  7.02152905E-01  3.51944938E-02 -3.26942715E-04  4.85950719E-17
 -4.20643358E-16 -1.29491418E-02  2.34694581E-03 -3.76131748E-16  2.23483280E-15
  1.93773233E-02 -5.22204912E-03 -8.19626475E-16  8.18569612E-16 -6.23743157E-03
 -6.73723964E-03 -6.52254537E-03 -3.94644149E-17  3.15544641E-16 -7.15643232E-05
 -7.02152905E-01 -3.51944938E-02 -3.26942715E-04 -1.69220747E-16  4.79618400E-16
  1.29491418E-02  2.34694581E-03  6.27833461E-16 -2.69053359E-15 -1.93773233E-02
 -5.22204912E-03  9.40803793E-16 -1.39751941E-15  6.23743157E-03  6.73723964E-03
  6.52254538E-03 -7.73301987E-17  4.23475413E-16  7.15643232E-05 -1.03254358E-04
  1.16856244E-03 -1.03254358E-04  1.16856244E-03  1.03254358E-04 -1.16856244E-03
  1.03254358E-04 -1.16856244E-03 -1.59533649E-01  3.11273617E-01 -1.00793362E-01
  6.05638564E-16  5.22339555E-16  2.33854045E-01 -4.33517421E-03  2.28550523E-15
 -4.32448839E-15  3.39850901E-03 -8.95491137E-04 -7.82775005E-16 -3.30385405E-15
  8.12133797E-03 -1.54368701E-02 -8.80278915E-04 -2.73105949E-16  6.59732122E-16
 -4.85221208E-03 -1.59533649E-01  3.11273617E-01  1.00793362E-01  2.36464525E-15
 -4.08063305E-15  2.33854045E-01  4.33517421E-03 -6.27802892E-15  2.21951977E-14
  3.39850901E-03  8.95491137E-04 -1.47197706E-15  1.33224285E-14  8.12133797E-03
 -1.54368701E-02 -8.80278915E-04  5.42847095E-17  2.80994833E-16 -4.85221208E-03
  8.39624721E-02  1.50557216E-02  8.39624721E-02  1.50557216E-02  8.39624721E-02
  1.50557216E-02  8.39624721E-02  1.50557216E-02 -1.23823280E-01  2.49515712E-01
  1.70475262E-01 -4.73423488E-16  3.27427894E-15  2.50193792E-01  6.25062993E-02
  4.06961385E-15 -1.30547837E-14 -3.47766779E-02  1.77119253E-02  1.42820144E-15
 -8.25345207E-15 -8.42743932E-03 -9.84344838E-03  1.19506319E-02  2.55553740E-16
  2.84268090E-16 -7.26471024E-03  1.23823280E-01 -2.49515712E-01  1.70475262E-01
 -1.20759021E-15  1.73396759E-15 -2.50193792E-01  6.25062993E-02 -4.50241406E-15
  1.58569725E-14  3.47766779E-02  1.77119253E-02 -1.62967924E-15  8.83485705E-15
  8.42743932E-03  9.84344838E-03 -1.19506319E-02  4.82434114E-16 -2.25131682E-16
  7.26471024E-03  1.45666688E-01  5.86722652E-02  1.45666688E-01  5.86722652E-02
 -1.45666688E-01 -5.86722652E-02 -1.45666688E-01 -5.86722652E-02  1.26466728E-15
  1.16371760E-15 -5.79313279E-16 -8.58386726E-02  3.20353660E-01 -1.05817632E-14
 -9.06198001E-15 -3.22858797E-02  1.20492459E-01  7.32906720E-13 -2.08189577E-13
 -3.49054232E-03  1.30265820E-02  1.54565411E-15  2.07095246E-15  2.15560405E-15
 -1.56037701E-03  5.82341170E-03  1.83585243E-16 -2.37744831E-16  4.46543789E-15
 -1.72491543E-15 -8.58386726E-02  3.20353660E-01 -3.29438384E-14 -1.85998243E-15
 -3.22858797E-02  1.20492459E-01 -7.30061325E-13 -1.87204809E-13 -3.49054232E-03
  1.30265820E-02  2.38367019E-15  3.34439416E-15  3.14926174E-15  1.56037701E-03
 -5.82341170E-03  4.21808592E-16 -1.56715750E-01 -9.72043208E-02  1.56715750E-01
  9.72043208E-02 -1.56715750E-01 -9.72043208E-02  1.56715750E-01  9.72043208E-02
  1.30020624E-02 -3.19744628E-02  4.15147942E-01 -1.83165879E-16  2.10043357E-15
  6.33108877E-03  1.39885171E-01 -1.23113315E-15  9.09614506E-15  1.80449892E-02
  3.14855854E-02 -2.56982463E-15  5.31957188E-15 -6.02860832E-03  1.34518003E-03
  1.76486518E-02  5.88098342E-17  9.14012543E-16 -5.43449679E-03  1.30020624E-02
 -3.19744628E-02 -4.15147942E-01  1.55505945E-15 -4.82498774E-15  6.33108877E-03
 -1.39885171E-01  1.12012032E-17 -5.14877023E-15  1.80449892E-02 -3.14855854E-02
  2.40263878E-15 -3.12720998E-15 -6.02860832E-03  1.34518003E-03  1.76486518E-02
 -4.24027589E-16  2.03796790E-16 -5.43449679E-03  1.25814805E-01  9.72211343E-02
  1.25814805E-01  9.72211343E-02  1.25814805E-01  9.72211343E-02  1.25814805E-01
  9.72211343E-02  3.45050276E-15  1.28070718E-14 -2.52002381E-15 -8.03180099E-02
  2.99750350E-01 -8.91782893E-14  5.03159260E-14 -3.56531979E-02  1.33059238E-01
  6.39607817E-12 -1.73308651E-12 -1.12499063E-02  4.19852566E-02  8.70779774E-16
  3.38243670E-15  4.23409202E-15 -7.77601320E-03  2.90204405E-02 -4.39026306E-17
 -4.46680916E-15 -1.79152641E-14  8.64645324E-15  8.03180099E-02 -2.99750350E-01
  1.24761334E-13  4.33020624E-14  3.56531979E-02 -1.33059238E-01 -6.39394202E-12
 -1.74895588E-12  1.12499063E-02 -4.19852566E-02 -4.27859336E-15 -7.20140157E-15
 -7.49929451E-15 -7.77601320E-03  2.90204405E-02  9.19520685E-17 -1.97166364E-01
 -1.71813374E-01  1.97166364E-01  1.71813374E-01  1.97166364E-01  1.71813374E-01
 -1.97166364E-01 -1.71813374E-01  6.14324575E-16 -1.08959695E-15  1.45901250E-16
  3.88220657E-01  1.04023641E-01 -4.68513322E-15 -3.74277672E-16  2.45295087E-01
  6.57267423E-02  1.27513053E-13 -3.70640456E-14  5.28878948E-02  1.41710136E-02
  2.26508746E-16  8.51337307E-16  5.75453606E-16 -1.58779658E-02 -4.25449078E-03
  5.95212184E-16  7.70473390E-16 -1.10808756E-15 -2.06062342E-16  3.88220657E-01
  1.04023641E-01 -9.32033601E-15  3.35637676E-15  2.45295087E-01  6.57267423E-02
 -1.27559872E-13 -3.04160793E-14  5.28878948E-02  1.41710136E-02  2.54931166E-16
  1.04090829E-15  5.66687693E-16  1.58779658E-02  4.25449078E-03  3.79735156E-16
  1.06458864E-08 -1.86711060E-07 -1.06458877E-08  1.86711059E-07  1.06458846E-08
 -1.86710915E-07 -1.06458872E-08  1.86710932E-07  3.63569414E-16 -1.15226520E-16
  3.30867423E-16  3.62989644E-01  9.72630005E-02 -4.46406637E-15 -4.54135877E-15
  4.30497733E-01  1.15351429E-01 -6.66485135E-14  1.45243048E-14  7.21559725E-01
  1.93341138E-01  3.92240568E-16  6.88886100E-16  5.17147451E-16  2.34265858E-02
  6.27715483E-03  6.59416818E-16 -1.07372928E-15  9.69741492E-16 -1.86123580E-15
 -3.62989644E-01 -9.72630005E-02  1.52984481E-14 -1.00515560E-14 -4.30497733E-01
 -1.15351429E-01  6.28820547E-14  2.45930255E-14 -7.21559725E-01 -1.93341138E-01
 -5.14952241E-16 -9.42582606E-16 -3.38273539E-16  2.34265858E-02  6.27715483E-03
 -3.26706226E-16  4.87872955E-10 -2.78424500E-07 -4.87876649E-10  2.78424513E-07
 -4.87857319E-10  2.78424118E-07  4.87859897E-10 -2.78424145E-07  5.10821227E-02
 -8.50847805E-02 -1.20580375E-01 -7.03539634E-15  2.59077540E-14 -5.16203939E-01
 -1.55345643E-01 -8.40369761E-15  2.35060524E-14  8.21981166E-01  4.27285954E-01
  2.96773382E-14 -6.86544889E-14  1.04901087E-04  1.33766298E-02  1.67182080E-04
  6.76739042E-16 -5.69532833E-16  4.40315843E-03  5.10821227E-02 -8.50847805E-02
  1.20580375E-01 -1.03371618E-14  2.33825538E-14 -5.16203939E-01  1.55345643E-01
 -3.59584704E-14  1.09159789E-13  8.21981166E-01 -4.27285954E-01 -6.82235121E-16
  2.09538810E-14  1.04901087E-04  1.33766298E-02  1.67182080E-04 -3.88545948E-16
  9.06602402E-16  4.40315843E-03 -4.18296984E-03 -1.10565411E-02 -4.18296984E-03
 -1.10565411E-02 -4.18296984E-03 -1.10565411E-02 -4.18296984E-03 -1.10565411E-02
 -5.11817941E-02  1.09793609E-01  5.00244526E-02  2.24345680E-14 -6.60318060E-14
  3.83956960E-01  6.86206652E-02  4.98060364E-13 -1.83268056E-12  9.62673220E+00
 -3.29113355E+00  4.10409336E-13 -1.55512473E-12 -1.15312248E-02 -2.19614142E-03
  8.45173402E-03 -4.48993473E-16  3.07838721E-15 -3.54930055E-03  5.11817941E-02
 -1.09793609E-01  5.00244526E-02  1.81961982E-14 -8.19172760E-14 -3.83956960E-01
  6.86206652E-02 -3.02343652E-13  1.09890141E-12 -9.62673220E+00 -3.29113355E+00
 -3.74370090E-13  1.42032720E-12  1.15312248E-02  2.19614142E-03 -8.45173402E-03
  1.28243923E-15 -3.63285024E-15  3.54930055E-03 -2.42147183E-03 -8.14688125E-02
 -2.42147183E-03 -8.14688125E-02  2.42147183E-03  8.14688125E-02  2.42147183E-03
  8.14688125E-02  1.56080637E-14 -3.39496790E-14 -2.56521307E-14  4.76433174E-02
 -1.77796016E-01 -8.72345143E-14 -3.07199653E-14  6.99356193E-02 -2.60986178E-01
  1.74723928E-12 -2.29369258E-13 -1.48130755E-01  5.52789684E-01  1.89429722E-15
  1.10799701E-15 -3.84327927E-15 -8.51024700E-04  3.17531009E-03  1.43944794E-15
 -1.10892867E-14  1.35909630E-14 -1.70997316E-15  4.76433174E-02 -1.77796016E-01
  1.13743191E-13 -5.11451353E-14  6.99356193E-02 -2.60986178E-01 -1.54445889E-12
 -3.87767336E-13 -1.48130755E-01  5.52789684E-01 -3.73781424E-15 -6.68158759E-16
  2.98875951E-16  8.51024700E-04 -3.17531009E-03 -3.99239383E-16 -1.26782978E-02
 -7.22437917E-02  1.26782978E-02  7.22437917E-02 -1.26782978E-02 -7.22437917E-02
  1.26782978E-02  7.22437917E-02 -4.23036918E-16  8.90225365E-16  3.22645707E-15
 -1.52829476E-01 -4.09544482E-02  7.52349395E-15  9.10806099E-15 -2.28455466E-01
 -6.12217125E-02 -9.41927826E-14 -1.70296021E-14  5.82400616E-01  1.56063064E-01
 -6.34608703E-16 -2.41309257E-16 -4.68171324E-17  1.08809685E-02  2.91567273E-03
 -1.42057035E-16  3.02400342E-17  2.35598445E-16 -2.67930839E-15 -1.52829476E-01
 -4.09544482E-02  3.37627697E-15 -4.55241066E-15 -2.28455466E-01 -6.12217125E-02
  8.93749939E-14  6.51692611E-14  5.82400616E-01  1.56063064E-01 -4.86839633E-16
 -1.72063955E-16 -1.44551918E-17 -1.08809685E-02 -2.91567273E-03 -8.25477560E-17
 -4.76455285E-07 -4.82942630E-06  4.76455288E-07  4.82942628E-06 -4.76455037E-07
 -4.82942155E-06  4.76455039E-07  4.82942153E-06 -3.64075743E-02  4.13651904E-02
 -4.39872563E-02 -1.58381055E-13  5.76448197E-13  5.33522819E-01  4.93902952E-02
 -3.47740105E-14  1.11470398E-13 -7.15658340E-03  1.45222380E+00  2.28609134E-12
 -8.45177484E-12  1.10798526E-02 -1.69201536E-02 -2.02160473E-02 -1.04452557E-14
  3.92189940E-14  1.09863231E-03 -3.64075743E-02  4.13651904E-02  4.39872563E-02
  1.40831365E-13 -5.42675370E-13  5.33522819E-01 -4.93902952E-02 -3.38437221E-14
  1.13929674E-13 -7.15658314E-03 -1.45222380E+00 -2.27874244E-12  8.53468564E-12
  1.10798526E-02 -1.69201536E-02 -2.02160473E-02 -1.12541121E-14  4.25989434E-14
  1.09863231E-03 -2.08720494E-02 -9.03853638E-02 -2.08720494E-02 -9.03853638E-02
 -2.08720494E-02 -9.03853638E-02 -2.08720494E-02 -9.03853638E-02 -1.79253982E-13
  2.21793785E-13 -1.21821916E-13  3.98583371E-02 -1.48751615E-01  2.31330537E-12
  3.73855666E-13  2.38873142E-02 -8.91453828E-02 -2.87145266E-11  1.31504076E-11
 -5.79984336E-01  2.16451674E+00  3.29497799E-14 -7.42809815E-14 -7.82633422E-14
  2.91456493E-03 -1.08772425E-02  1.34537339E-15 -8.94400289E-14  9.63088438E-14
  2.32473308E-13 -3.98583371E-02  1.48751615E-01  1.55067713E-12  9.60502029E-14
 -2.38873142E-02  8.91453828E-02  2.85805503E-11  2.04430663E-12  5.79984336E-01
 -2.16451674E+00  5.67683381E-14 -5.14099328E-14 -7.01948166E-14  2.91456493E-03
 -1.08772425E-02  6.34576695E-15  1.74960319E-02  1.71448266E-01 -1.74960319E-02
 -1.71448266E-01 -1.74960319E-02 -1.71448266E-01  1.74960319E-02  1.71448266E-01
 -5.62100276E-15  2.37785552E-15  8.96434916E-15 -2.56878891E-01 -6.88309357E-02
  9.65705476E-14  4.22860645E-14 -4.63867566E-01 -1.24293910E-01 -2.05295097E-12
  5.54779338E-13  1.92120351E+00  5.14788427E-01 -1.19508148E-15 -1.35125185E-15
 -1.67970274E-15 -8.79984489E-03 -2.35794127E-03 -2.14926579E-16  1.69139295E-15
 -5.12344306E-15 -5.46192401E-16  2.56878891E-01  6.88309357E-02  5.29381026E-15
 -1.17141922E-14  4.63867566E-01  1.24293910E-01  2.10814208E-12  5.72952398E-13
 -1.92120351E+00 -5.14788427E-01  4.62206251E-16  1.81213960E-15  1.69348463E-16
 -8.79984489E-03 -2.35794127E-03  7.27925377E-16  4.40163427E-08 -3.92808656E-07
 -4.40163547E-08  3.92808554E-07 -4.40166647E-08  3.92804588E-07  4.40166607E-08
 -3.92804680E-07  5.59958763E-02 -8.19115168E-02 -8.92174634E-02  3.85872913E-13
 -1.51365569E-12 -5.69152746E-01 -4.25153423E-01  3.11073139E-12 -1.17216183E-11
  3.44829605E+01 -9.45798286E+00  1.82425922E-12 -6.29076885E-12  7.19654892E-03
  9.90692355E-03  5.65480213E-03 -3.58229379E-14  1.33766981E-13  1.41737655E-03
 -5.59958763E-02  8.19115168E-02 -8.92174633E-02  1.47915377E-13 -4.85016937E-13
  5.69152746E-01 -4.25153422E-01 -9.74448276E-13  3.73862613E-12 -3.44829605E+01
 -9.45798286E+00 -4.92902236E-13  1.36004588E-12 -7.19654892E-03 -9.90692355E-03
 -5.65480212E-03  5.24393199E-14 -2.00192732E-13 -1.41737655E-03  4.78144667E-02
  1.50599686E-01  4.78144667E-02  1.50599686E-01 -4.78144667E-02 -1.50599686E-01
 -4.78144667E-02 -1.50599686E-01 -5.98900035E-02  4.56229658E-02  1.63516115E-01
  1.39152857E-13 -4.69349527E-13  1.28814609E+00  6.42451176E-01  5.45568060E-13
 -1.97624111E-12  6.57719527E-01 -9.91703029E-02  2.09406949E-13 -1.14400468E-12
 -3.55398111E-03  1.26673601E-02 -2.48808571E-02 -1.93338310E-14  7.51600432E-14
  1.25161022E-02 -5.98900035E-02  4.56229658E-02 -1.63516115E-01  9.22148138E-14
 -4.12306192E-13  1.28814609E+00 -6.42451176E-01  2.78022555E-13 -1.04451125E-12
  6.57719525E-01  9.91703023E-02  2.91906208E-13 -7.73083890E-13 -3.55398111E-03
  1.26673601E-02 -2.48808571E-02  2.18252668E-14 -7.89339151E-14  1.25161022E-02
 -1.00313801E-01 -1.23774841E+00 -1.00313801E-01 -1.23774841E+00 -1.00313801E-01
 -1.23774841E+00 -1.00313801E-01 -1.23774841E+00  2.93854604E-13 -4.85170455E-13
 -2.37634400E-13 -5.81944648E-02  2.17182308E-01 -2.56716011E-12 -1.78636786E-12
 -1.88753162E-01  7.04433261E-01  1.46615009E-10 -4.14926964E-11 -1.17077667E-01
  4.36945112E-01  3.28336214E-14  7.31627182E-14  5.40398346E-15  1.06350648E-02
 -3.96903516E-02  2.37702020E-14 -5.46390138E-13  7.72803825E-13 -1.05804655E-12
 -5.81944648E-02  2.17182308E-01  7.75276416E-12 -4.30933001E-12 -1.88753162E-01
  7.04433261E-01 -1.43907173E-10 -4.07827717E-11 -1.17077667E-01  4.36945112E-01
 -5.73053408E-14 -2.64432635E-14 -1.30164900E-13 -1.06350648E-02  3.96903516E-02
  3.38227463E-14  1.38845116E-01  1.17409730E+00 -1.38845116E-01 -1.17409730E+00
  1.38845116E-01  1.17409730E+00 -1.38845116E-01 -1.17409730E+00 -7.67434858E-02
  9.79891377E-02  7.69700805E-02  1.05561575E-13 -3.82232099E-13  1.26023002E+00
  4.32512279E-01  2.02620544E-12 -7.56630289E-12  2.10444719E+01 -5.22219024E+00
  1.59655384E-12 -5.93869573E-12 -7.49785722E-03  8.04644198E-03 -1.59698229E-02
  3.97037625E-14 -1.43905969E-13  8.00543968E-03  7.67434858E-02 -9.79891377E-02
  7.69700805E-02 -3.66550349E-13  1.38963502E-12 -1.26023002E+00  4.32512279E-01
 -2.66667094E-12  9.90330549E-12 -2.10444719E+01 -5.22219024E+00 -1.99321110E-12
  7.45338775E-12  7.49785722E-03 -8.04644198E-03  1.59698229E-02 -1.67437901E-14
  6.30531836E-14 -8.00543968E-03 -1.22854872E-01 -1.40635710E+00 -1.22854872E-01
 -1.40635710E+00  1.22854872E-01  1.40635710E+00  1.22854872E-01  1.40635710E+00
 -7.04833958E-13  6.89425330E-13 -1.12450826E-12 -9.80830305E-02  3.66049867E-01
  1.99419838E-11 -1.29078884E-11 -4.73536429E-01  1.76725827E+00  1.40480948E-10
 -3.54797413E-11 -4.79908862E-01  1.79104321E+00 -1.91056764E-13  9.75512081E-14
  3.62993435E-14 -3.65775228E-03  1.36509060E-02  2.14734844E-14  6.89195064E-13
 -5.72899009E-13 -1.22516177E-12  9.80830305E-02 -3.66049867E-01 -1.97590200E-11
 -1.29877973E-11  4.73536429E-01 -1.76725827E+00 -1.40191900E-10 -3.58029548E-11
  4.79908862E-01 -1.79104321E+00  2.41691273E-13 -4.66393823E-14 -6.95601740E-15
 -3.65775228E-03  1.36509060E-02 -1.42178560E-14  2.83080686E-02  1.90510142E+00
 -2.83080686E-02 -1.90510142E+00 -2.83080686E-02 -1.90510142E+00  2.83080686E-02
  1.90510142E+00  1.02496703E-01 -9.31732324E-02  2.23622352E-01 -4.99550248E-13
  1.85920541E-12 -3.29250118E+00  2.69469404E+00 -2.30569829E-12  8.61078245E-12
  6.00933380E+00 -1.90883885E+00 -2.38695027E-12  8.95085353E-12  3.24876548E-02
  3.76603917E-04 -2.16972363E-02 -1.74985634E-14  6.67129182E-14  7.35797255E-03
 -1.02496703E-01  9.31732324E-02  2.23622352E-01  5.01623220E-13 -1.84938025E-12
  3.29250118E+00  2.69469404E+00  2.29714855E-12 -8.60076785E-12 -6.00933380E+00
 -1.90883885E+00  2.38758231E-12 -8.94162910E-12 -3.24876548E-02 -3.76603916E-04
  2.16972363E-02 -1.77173851E-14  6.71860182E-14 -7.35797255E-03 -2.65673787E-02
 -2.38376112E-01 -2.65673787E-02 -2.38376112E-01  2.65673787E-02  2.38376112E-01
  2.65673787E-02  2.38376112E-01  2.82425844E-02  5.69172395E-02 -6.08879138E-01
 -5.52484681E-15  1.18616665E-13  4.23431887E-01  1.23450539E+00 -7.11391035E-15
 -1.22370403E-13 -1.05186526E-01 -7.58982754E-01 -4.12738670E-15  5.37863465E-14
  7.49371378E-02 -1.33289532E-02 -5.74110774E-02  5.52514494E-15 -2.06621269E-14
  1.46940677E-02  2.82425844E-02  5.69172395E-02  6.08879138E-01 -2.78824222E-14
  3.16662646E-14  4.23431887E-01 -1.23450539E+00  3.49032547E-14 -9.12352158E-15
 -1.05186526E-01  7.58982754E-01  7.18443995E-15 -5.84447048E-14  7.49371378E-02
 -1.33289532E-02 -5.74110774E-02 -5.27491136E-15  2.27011040E-14  1.46940677E-02